       #
       # Generated by the Wannier90 code http://www.wannier.org
       # On 22Jul2020 at 14:33:55 
       #
CRYSTAL
PRIMVEC
   4.2042600   0.0000000   0.0000000
   0.0000000   4.2042600   0.0000000
   0.0000000   0.0000000   4.2042600
CONVVEC
   4.2042600   0.0000000   0.0000000
   0.0000000   4.2042600   0.0000000
   0.0000000   0.0000000   4.2042600
PRIMCOORD
     8  1
O       0.0000000   0.0000000   0.0000000
O       2.1021300   2.1021300   0.0000000
O       2.1021300   0.0000000   2.1021300
O       0.0000000   2.1021300   2.1021300
Ni      0.0000000   0.0000000   2.1021300
Ni      2.1021300   0.0000000   0.0000000
Ni      0.0000000   2.1021300   0.0000000
Ni      2.1021300   2.1021300   2.1021300


BEGIN_BLOCK_DATAGRID_3D
3D_field
BEGIN_DATAGRID_3D_UNKNOWN
    36    36    36
   -0.116785   -0.116785   -0.116785
   4.0874750   0.0000000   0.0000000
   0.0000000   4.0874750   0.0000000
   0.0000000   0.0000000   4.0874750
  0.49686E-01  0.37262E-01  0.16897E-01 -0.17270E-02 -0.12358E-01 -0.14164E-01
 -0.98686E-02 -0.36123E-02  0.13152E-02  0.47283E-02  0.86868E-02  0.13627E-01
  0.17747E-01  0.21909E-01  0.31583E-01  0.49453E-01  0.68288E-01  0.77219E-01
  0.75276E-01  0.72463E-01  0.75276E-01  0.77219E-01  0.68288E-01  0.49453E-01
  0.31583E-01  0.21909E-01  0.17747E-01  0.13627E-01  0.86868E-02  0.47283E-02
  0.13152E-02 -0.36123E-02 -0.98686E-02 -0.14164E-01 -0.12358E-01 -0.17270E-02
  0.37262E-01  0.24227E-01  0.43874E-02 -0.11721E-01 -0.17857E-01 -0.14784E-01
 -0.71683E-02  0.31812E-03  0.53305E-02  0.84709E-02  0.11378E-01  0.13763E-01
  0.14016E-01  0.12689E-01  0.10589E-01  0.45344E-03 -0.32838E-01 -0.93785E-01
 -0.15856E+00 -0.18689E+00 -0.15856E+00 -0.93785E-01 -0.32838E-01  0.45344E-03
  0.10589E-01  0.12689E-01  0.14016E-01  0.13763E-01  0.11378E-01  0.84709E-02
  0.53305E-02  0.31812E-03 -0.71683E-02 -0.14784E-01 -0.17857E-01 -0.11721E-01
  0.16897E-01  0.43874E-02 -0.11547E-01 -0.21656E-01 -0.21492E-01 -0.13607E-01
 -0.36072E-02  0.42046E-02  0.84866E-02  0.10484E-01  0.12044E-01  0.13196E-01
  0.12711E-01  0.10872E-01  0.72659E-02 -0.68261E-02 -0.47003E-01 -0.11645E+00
 -0.18843E+00 -0.21960E+00 -0.18843E+00 -0.11645E+00 -0.47003E-01 -0.68261E-02
  0.72659E-02  0.10872E-01  0.12711E-01  0.13196E-01  0.12044E-01  0.10484E-01
  0.84866E-02  0.42046E-02 -0.36072E-02 -0.13607E-01 -0.21492E-01 -0.21656E-01
 -0.17270E-02 -0.11721E-01 -0.21656E-01 -0.25338E-01 -0.20625E-01 -0.10650E-01
 -0.27277E-03  0.72466E-02  0.11043E-01  0.12472E-01  0.14038E-01  0.16881E-01
  0.19930E-01  0.22737E-01  0.26430E-01  0.28434E-01  0.19592E-01 -0.59156E-02
 -0.37285E-01 -0.51760E-01 -0.37285E-01 -0.59156E-02  0.19592E-01  0.28434E-01
  0.26430E-01  0.22737E-01  0.19930E-01  0.16881E-01  0.14038E-01  0.12472E-01
  0.11043E-01  0.72466E-02 -0.27277E-03 -0.10650E-01 -0.20625E-01 -0.25338E-01
 -0.12358E-01 -0.17857E-01 -0.21492E-01 -0.20625E-01 -0.14626E-01 -0.56611E-02
  0.33695E-02  0.10469E-01  0.14700E-01  0.16910E-01  0.20092E-01  0.26589E-01
  0.35148E-01  0.43521E-01  0.53624E-01  0.70106E-01  0.92906E-01  0.11507E+00
  0.12948E+00  0.13415E+00  0.12948E+00  0.11507E+00  0.92906E-01  0.70106E-01
  0.53624E-01  0.43521E-01  0.35148E-01  0.26589E-01  0.20092E-01  0.16910E-01
  0.14700E-01  0.10469E-01  0.33695E-02 -0.56611E-02 -0.14626E-01 -0.20625E-01
 -0.14164E-01 -0.14784E-01 -0.13607E-01 -0.10650E-01 -0.56611E-02  0.72413E-03
  0.75400E-02  0.14004E-01  0.19170E-01  0.23019E-01  0.28085E-01  0.37249E-01
  0.49326E-01  0.60250E-01  0.70304E-01  0.86753E-01  0.11593E+00  0.15377E+00
  0.18633E+00  0.19916E+00  0.18633E+00  0.15377E+00  0.11593E+00  0.86753E-01
  0.70304E-01  0.60250E-01  0.49326E-01  0.37249E-01  0.28085E-01  0.23019E-01
  0.19170E-01  0.14004E-01  0.75400E-02  0.72413E-03 -0.56611E-02 -0.10650E-01
 -0.98686E-02 -0.71683E-02 -0.36072E-02 -0.27277E-03  0.33695E-02  0.75400E-02
  0.12212E-01  0.17683E-01  0.23543E-01  0.28800E-01  0.34252E-01  0.42405E-01
  0.53302E-01  0.63137E-01  0.69857E-01  0.78201E-01  0.95408E-01  0.12160E+00
  0.14655E+00  0.15687E+00  0.14655E+00  0.12160E+00  0.95408E-01  0.78201E-01
  0.69857E-01  0.63137E-01  0.53302E-01  0.42405E-01  0.34252E-01  0.28800E-01
  0.23543E-01  0.17683E-01  0.12212E-01  0.75400E-02  0.33695E-02 -0.27277E-03
 -0.36123E-02  0.31812E-03  0.42046E-02  0.72466E-02  0.10469E-01  0.14004E-01
  0.17683E-01  0.22508E-01  0.28805E-01  0.34522E-01  0.38043E-01  0.41185E-01
  0.46549E-01  0.53147E-01  0.57935E-01  0.61303E-01  0.67635E-01  0.79242E-01
  0.91748E-01  0.97225E-01  0.91748E-01  0.79242E-01  0.67635E-01  0.61303E-01
  0.57935E-01  0.53147E-01  0.46549E-01  0.41185E-01  0.38043E-01  0.34522E-01
  0.28805E-01  0.22508E-01  0.17683E-01  0.14004E-01  0.10469E-01  0.72466E-02
  0.13152E-02  0.53305E-02  0.84866E-02  0.11043E-01  0.14700E-01  0.19170E-01
  0.23543E-01  0.28805E-01  0.35465E-01  0.40456E-01  0.40342E-01  0.36869E-01
  0.35486E-01  0.38331E-01  0.42215E-01  0.44358E-01  0.46728E-01  0.52459E-01
  0.59956E-01  0.63522E-01  0.59956E-01  0.52459E-01  0.46728E-01  0.44358E-01
  0.42215E-01  0.38331E-01  0.35486E-01  0.36869E-01  0.40342E-01  0.40456E-01
  0.35465E-01  0.28805E-01  0.23543E-01  0.19170E-01  0.14700E-01  0.11043E-01
  0.47283E-02  0.84709E-02  0.10484E-01  0.12472E-01  0.16910E-01  0.23019E-01
  0.28800E-01  0.34522E-01  0.40456E-01  0.43225E-01  0.39141E-01  0.30638E-01
  0.24760E-01  0.24459E-01  0.25497E-01  0.23726E-01  0.21675E-01  0.24457E-01
  0.31187E-01  0.34834E-01  0.31187E-01  0.24457E-01  0.21675E-01  0.23726E-01
  0.25497E-01  0.24459E-01  0.24760E-01  0.30638E-01  0.39141E-01  0.43225E-01
  0.40456E-01  0.34522E-01  0.28800E-01  0.23019E-01  0.16910E-01  0.12472E-01
  0.86868E-02  0.11378E-01  0.12044E-01  0.14038E-01  0.20092E-01  0.28085E-01
  0.34252E-01  0.38043E-01  0.40342E-01  0.39141E-01  0.31839E-01  0.21157E-01
  0.13540E-01  0.10493E-01  0.61967E-02 -0.35993E-02 -0.14124E-01 -0.17329E-01
 -0.13178E-01 -0.10052E-01 -0.13178E-01 -0.17329E-01 -0.14124E-01 -0.35993E-02
  0.61967E-02  0.10493E-01  0.13540E-01  0.21157E-01  0.31839E-01  0.39141E-01
  0.40342E-01  0.38043E-01  0.34252E-01  0.28085E-01  0.20092E-01  0.14038E-01
  0.13627E-01  0.13763E-01  0.13196E-01  0.16881E-01  0.26589E-01  0.37249E-01
  0.42405E-01  0.41185E-01  0.36869E-01  0.30638E-01  0.21157E-01  0.95941E-02
 -0.17085E-03 -0.78687E-02 -0.18814E-01 -0.36214E-01 -0.54538E-01 -0.64914E-01
 -0.66010E-01 -0.64832E-01 -0.66010E-01 -0.64914E-01 -0.54538E-01 -0.36214E-01
 -0.18814E-01 -0.78687E-02 -0.17085E-03  0.95941E-02  0.21157E-01  0.30638E-01
  0.36869E-01  0.41185E-01  0.42405E-01  0.37249E-01  0.26589E-01  0.16881E-01
  0.17747E-01  0.14016E-01  0.12711E-01  0.19930E-01  0.35148E-01  0.49326E-01
  0.53302E-01  0.46549E-01  0.35486E-01  0.24760E-01  0.13540E-01 -0.17085E-03
 -0.15826E-01 -0.32639E-01 -0.52238E-01 -0.75770E-01 -0.99704E-01 -0.11777E+00
 -0.12707E+00 -0.12956E+00 -0.12707E+00 -0.11777E+00 -0.99704E-01 -0.75770E-01
 -0.52238E-01 -0.32639E-01 -0.15826E-01 -0.17085E-03  0.13540E-01  0.24760E-01
  0.35486E-01  0.46549E-01  0.53302E-01  0.49326E-01  0.35148E-01  0.19930E-01
  0.21909E-01  0.12689E-01  0.10872E-01  0.22737E-01  0.43521E-01  0.60250E-01
  0.63137E-01  0.53147E-01  0.38331E-01  0.24459E-01  0.10493E-01 -0.78687E-02
 -0.32639E-01 -0.62335E-01 -0.94721E-01 -0.12874E+00 -0.16331E+00 -0.19503E+00
 -0.21802E+00 -0.22649E+00 -0.21802E+00 -0.19503E+00 -0.16331E+00 -0.12874E+00
 -0.94721E-01 -0.62335E-01 -0.32639E-01 -0.78687E-02  0.10493E-01  0.24459E-01
  0.38331E-01  0.53147E-01  0.63137E-01  0.60250E-01  0.43521E-01  0.22737E-01
  0.31583E-01  0.10589E-01  0.72659E-02  0.26430E-01  0.53624E-01  0.70304E-01
  0.69857E-01  0.57935E-01  0.42215E-01  0.25497E-01  0.61967E-02 -0.18814E-01
 -0.52238E-01 -0.94721E-01 -0.14424E+00 -0.19772E+00 -0.25243E+00 -0.30377E+00
 -0.34241E+00 -0.35704E+00 -0.34241E+00 -0.30377E+00 -0.25243E+00 -0.19772E+00
 -0.14424E+00 -0.94721E-01 -0.52238E-01 -0.18814E-01  0.61967E-02  0.25497E-01
  0.42215E-01  0.57935E-01  0.69857E-01  0.70304E-01  0.53624E-01  0.26430E-01
  0.49453E-01  0.45344E-03 -0.68261E-02  0.28434E-01  0.70106E-01  0.86753E-01
  0.78201E-01  0.61303E-01  0.44358E-01  0.23726E-01 -0.35993E-02 -0.36214E-01
 -0.75770E-01 -0.12874E+00 -0.19772E+00 -0.27547E+00 -0.34966E+00 -0.41006E+00
 -0.44977E+00 -0.46373E+00 -0.44977E+00 -0.41006E+00 -0.34966E+00 -0.27547E+00
 -0.19772E+00 -0.12874E+00 -0.75770E-01 -0.36214E-01 -0.35993E-02  0.23726E-01
  0.44358E-01  0.61303E-01  0.78201E-01  0.86753E-01  0.70106E-01  0.28434E-01
  0.68288E-01 -0.32838E-01 -0.47003E-01  0.19592E-01  0.92906E-01  0.11593E+00
  0.95408E-01  0.67635E-01  0.46728E-01  0.21675E-01 -0.14124E-01 -0.54538E-01
 -0.99704E-01 -0.16331E+00 -0.25243E+00 -0.34966E+00 -0.42464E+00 -0.46118E+00
 -0.46855E+00 -0.46758E+00 -0.46855E+00 -0.46118E+00 -0.42464E+00 -0.34966E+00
 -0.25243E+00 -0.16331E+00 -0.99704E-01 -0.54538E-01 -0.14124E-01  0.21675E-01
  0.46728E-01  0.67635E-01  0.95408E-01  0.11593E+00  0.92906E-01  0.19592E-01
  0.77219E-01 -0.93785E-01 -0.11645E+00 -0.59156E-02  0.11507E+00  0.15377E+00
  0.12160E+00  0.79242E-01  0.52459E-01  0.24457E-01 -0.17329E-01 -0.64914E-01
 -0.11777E+00 -0.19503E+00 -0.30377E+00 -0.41006E+00 -0.46118E+00 -0.43864E+00
 -0.38136E+00 -0.35226E+00 -0.38136E+00 -0.43864E+00 -0.46118E+00 -0.41006E+00
 -0.30377E+00 -0.19503E+00 -0.11777E+00 -0.64914E-01 -0.17329E-01  0.24457E-01
  0.52459E-01  0.79242E-01  0.12160E+00  0.15377E+00  0.11507E+00 -0.59156E-02
  0.75276E-01 -0.15856E+00 -0.18843E+00 -0.37285E-01  0.12948E+00  0.18633E+00
  0.14655E+00  0.91748E-01  0.59956E-01  0.31187E-01 -0.13178E-01 -0.66010E-01
 -0.12707E+00 -0.21802E+00 -0.34241E+00 -0.44977E+00 -0.46855E+00 -0.38136E+00
 -0.25723E+00 -0.19960E+00 -0.25723E+00 -0.38136E+00 -0.46855E+00 -0.44977E+00
 -0.34241E+00 -0.21802E+00 -0.12707E+00 -0.66010E-01 -0.13178E-01  0.31187E-01
  0.59956E-01  0.91748E-01  0.14655E+00  0.18633E+00  0.12948E+00 -0.37285E-01
  0.72463E-01 -0.18689E+00 -0.21960E+00 -0.51760E-01  0.13415E+00  0.19916E+00
  0.15687E+00  0.97225E-01  0.63522E-01  0.34834E-01 -0.10052E-01 -0.64832E-01
 -0.12956E+00 -0.22649E+00 -0.35704E+00 -0.46373E+00 -0.46758E+00 -0.35226E+00
 -0.19960E+00 -0.12988E+00 -0.19960E+00 -0.35226E+00 -0.46758E+00 -0.46373E+00
 -0.35704E+00 -0.22649E+00 -0.12956E+00 -0.64832E-01 -0.10052E-01  0.34834E-01
  0.63522E-01  0.97225E-01  0.15687E+00  0.19916E+00  0.13415E+00 -0.51760E-01
  0.75276E-01 -0.15856E+00 -0.18843E+00 -0.37285E-01  0.12948E+00  0.18633E+00
  0.14655E+00  0.91748E-01  0.59956E-01  0.31187E-01 -0.13178E-01 -0.66010E-01
 -0.12707E+00 -0.21802E+00 -0.34241E+00 -0.44977E+00 -0.46855E+00 -0.38136E+00
 -0.25723E+00 -0.19960E+00 -0.25723E+00 -0.38136E+00 -0.46855E+00 -0.44977E+00
 -0.34241E+00 -0.21802E+00 -0.12707E+00 -0.66010E-01 -0.13178E-01  0.31187E-01
  0.59956E-01  0.91748E-01  0.14655E+00  0.18633E+00  0.12948E+00 -0.37285E-01
  0.77219E-01 -0.93785E-01 -0.11645E+00 -0.59156E-02  0.11507E+00  0.15377E+00
  0.12160E+00  0.79242E-01  0.52459E-01  0.24457E-01 -0.17329E-01 -0.64914E-01
 -0.11777E+00 -0.19503E+00 -0.30377E+00 -0.41006E+00 -0.46118E+00 -0.43864E+00
 -0.38136E+00 -0.35226E+00 -0.38136E+00 -0.43864E+00 -0.46118E+00 -0.41006E+00
 -0.30377E+00 -0.19503E+00 -0.11777E+00 -0.64914E-01 -0.17329E-01  0.24457E-01
  0.52459E-01  0.79242E-01  0.12160E+00  0.15377E+00  0.11507E+00 -0.59156E-02
  0.68288E-01 -0.32838E-01 -0.47003E-01  0.19592E-01  0.92906E-01  0.11593E+00
  0.95408E-01  0.67635E-01  0.46728E-01  0.21675E-01 -0.14124E-01 -0.54538E-01
 -0.99704E-01 -0.16331E+00 -0.25243E+00 -0.34966E+00 -0.42464E+00 -0.46118E+00
 -0.46855E+00 -0.46758E+00 -0.46855E+00 -0.46118E+00 -0.42464E+00 -0.34966E+00
 -0.25243E+00 -0.16331E+00 -0.99704E-01 -0.54538E-01 -0.14124E-01  0.21675E-01
  0.46728E-01  0.67635E-01  0.95408E-01  0.11593E+00  0.92906E-01  0.19592E-01
  0.49453E-01  0.45344E-03 -0.68261E-02  0.28434E-01  0.70106E-01  0.86753E-01
  0.78201E-01  0.61303E-01  0.44358E-01  0.23726E-01 -0.35993E-02 -0.36214E-01
 -0.75770E-01 -0.12874E+00 -0.19772E+00 -0.27547E+00 -0.34966E+00 -0.41006E+00
 -0.44977E+00 -0.46373E+00 -0.44977E+00 -0.41006E+00 -0.34966E+00 -0.27547E+00
 -0.19772E+00 -0.12874E+00 -0.75770E-01 -0.36214E-01 -0.35993E-02  0.23726E-01
  0.44358E-01  0.61303E-01  0.78201E-01  0.86753E-01  0.70106E-01  0.28434E-01
  0.31583E-01  0.10589E-01  0.72659E-02  0.26430E-01  0.53624E-01  0.70304E-01
  0.69857E-01  0.57935E-01  0.42215E-01  0.25497E-01  0.61967E-02 -0.18814E-01
 -0.52238E-01 -0.94721E-01 -0.14424E+00 -0.19772E+00 -0.25243E+00 -0.30377E+00
 -0.34241E+00 -0.35704E+00 -0.34241E+00 -0.30377E+00 -0.25243E+00 -0.19772E+00
 -0.14424E+00 -0.94721E-01 -0.52238E-01 -0.18814E-01  0.61967E-02  0.25497E-01
  0.42215E-01  0.57935E-01  0.69857E-01  0.70304E-01  0.53624E-01  0.26430E-01
  0.21909E-01  0.12689E-01  0.10872E-01  0.22737E-01  0.43521E-01  0.60250E-01
  0.63137E-01  0.53147E-01  0.38331E-01  0.24459E-01  0.10493E-01 -0.78687E-02
 -0.32639E-01 -0.62335E-01 -0.94721E-01 -0.12874E+00 -0.16331E+00 -0.19503E+00
 -0.21802E+00 -0.22649E+00 -0.21802E+00 -0.19503E+00 -0.16331E+00 -0.12874E+00
 -0.94721E-01 -0.62335E-01 -0.32639E-01 -0.78687E-02  0.10493E-01  0.24459E-01
  0.38331E-01  0.53147E-01  0.63137E-01  0.60250E-01  0.43521E-01  0.22737E-01
  0.17747E-01  0.14016E-01  0.12711E-01  0.19930E-01  0.35148E-01  0.49326E-01
  0.53302E-01  0.46549E-01  0.35486E-01  0.24760E-01  0.13540E-01 -0.17085E-03
 -0.15826E-01 -0.32639E-01 -0.52238E-01 -0.75770E-01 -0.99704E-01 -0.11777E+00
 -0.12707E+00 -0.12956E+00 -0.12707E+00 -0.11777E+00 -0.99704E-01 -0.75770E-01
 -0.52238E-01 -0.32639E-01 -0.15826E-01 -0.17085E-03  0.13540E-01  0.24760E-01
  0.35486E-01  0.46549E-01  0.53302E-01  0.49326E-01  0.35148E-01  0.19930E-01
  0.13627E-01  0.13763E-01  0.13196E-01  0.16881E-01  0.26589E-01  0.37249E-01
  0.42405E-01  0.41185E-01  0.36869E-01  0.30638E-01  0.21157E-01  0.95941E-02
 -0.17085E-03 -0.78687E-02 -0.18814E-01 -0.36214E-01 -0.54538E-01 -0.64914E-01
 -0.66010E-01 -0.64832E-01 -0.66010E-01 -0.64914E-01 -0.54538E-01 -0.36214E-01
 -0.18814E-01 -0.78687E-02 -0.17085E-03  0.95941E-02  0.21157E-01  0.30638E-01
  0.36869E-01  0.41185E-01  0.42405E-01  0.37249E-01  0.26589E-01  0.16881E-01
  0.86868E-02  0.11378E-01  0.12044E-01  0.14038E-01  0.20092E-01  0.28085E-01
  0.34252E-01  0.38043E-01  0.40342E-01  0.39141E-01  0.31839E-01  0.21157E-01
  0.13540E-01  0.10493E-01  0.61967E-02 -0.35993E-02 -0.14124E-01 -0.17329E-01
 -0.13178E-01 -0.10052E-01 -0.13178E-01 -0.17329E-01 -0.14124E-01 -0.35993E-02
  0.61967E-02  0.10493E-01  0.13540E-01  0.21157E-01  0.31839E-01  0.39141E-01
  0.40342E-01  0.38043E-01  0.34252E-01  0.28085E-01  0.20092E-01  0.14038E-01
  0.47283E-02  0.84709E-02  0.10484E-01  0.12472E-01  0.16910E-01  0.23019E-01
  0.28800E-01  0.34522E-01  0.40456E-01  0.43225E-01  0.39141E-01  0.30638E-01
  0.24760E-01  0.24459E-01  0.25497E-01  0.23726E-01  0.21675E-01  0.24457E-01
  0.31187E-01  0.34834E-01  0.31187E-01  0.24457E-01  0.21675E-01  0.23726E-01
  0.25497E-01  0.24459E-01  0.24760E-01  0.30638E-01  0.39141E-01  0.43225E-01
  0.40456E-01  0.34522E-01  0.28800E-01  0.23019E-01  0.16910E-01  0.12472E-01
  0.13152E-02  0.53305E-02  0.84866E-02  0.11043E-01  0.14700E-01  0.19170E-01
  0.23543E-01  0.28805E-01  0.35465E-01  0.40456E-01  0.40342E-01  0.36869E-01
  0.35486E-01  0.38331E-01  0.42215E-01  0.44358E-01  0.46728E-01  0.52459E-01
  0.59956E-01  0.63522E-01  0.59956E-01  0.52459E-01  0.46728E-01  0.44358E-01
  0.42215E-01  0.38331E-01  0.35486E-01  0.36869E-01  0.40342E-01  0.40456E-01
  0.35465E-01  0.28805E-01  0.23543E-01  0.19170E-01  0.14700E-01  0.11043E-01
 -0.36123E-02  0.31812E-03  0.42046E-02  0.72466E-02  0.10469E-01  0.14004E-01
  0.17683E-01  0.22508E-01  0.28805E-01  0.34522E-01  0.38043E-01  0.41185E-01
  0.46549E-01  0.53147E-01  0.57935E-01  0.61303E-01  0.67635E-01  0.79242E-01
  0.91748E-01  0.97225E-01  0.91748E-01  0.79242E-01  0.67635E-01  0.61303E-01
  0.57935E-01  0.53147E-01  0.46549E-01  0.41185E-01  0.38043E-01  0.34522E-01
  0.28805E-01  0.22508E-01  0.17683E-01  0.14004E-01  0.10469E-01  0.72466E-02
 -0.98686E-02 -0.71683E-02 -0.36072E-02 -0.27277E-03  0.33695E-02  0.75400E-02
  0.12212E-01  0.17683E-01  0.23543E-01  0.28800E-01  0.34252E-01  0.42405E-01
  0.53302E-01  0.63137E-01  0.69857E-01  0.78201E-01  0.95408E-01  0.12160E+00
  0.14655E+00  0.15687E+00  0.14655E+00  0.12160E+00  0.95408E-01  0.78201E-01
  0.69857E-01  0.63137E-01  0.53302E-01  0.42405E-01  0.34252E-01  0.28800E-01
  0.23543E-01  0.17683E-01  0.12212E-01  0.75400E-02  0.33695E-02 -0.27277E-03
 -0.14164E-01 -0.14784E-01 -0.13607E-01 -0.10650E-01 -0.56611E-02  0.72413E-03
  0.75400E-02  0.14004E-01  0.19170E-01  0.23019E-01  0.28085E-01  0.37249E-01
  0.49326E-01  0.60250E-01  0.70304E-01  0.86753E-01  0.11593E+00  0.15377E+00
  0.18633E+00  0.19916E+00  0.18633E+00  0.15377E+00  0.11593E+00  0.86753E-01
  0.70304E-01  0.60250E-01  0.49326E-01  0.37249E-01  0.28085E-01  0.23019E-01
  0.19170E-01  0.14004E-01  0.75400E-02  0.72413E-03 -0.56611E-02 -0.10650E-01
 -0.12358E-01 -0.17857E-01 -0.21492E-01 -0.20625E-01 -0.14626E-01 -0.56611E-02
  0.33695E-02  0.10469E-01  0.14700E-01  0.16910E-01  0.20092E-01  0.26589E-01
  0.35148E-01  0.43521E-01  0.53624E-01  0.70106E-01  0.92906E-01  0.11507E+00
  0.12948E+00  0.13415E+00  0.12948E+00  0.11507E+00  0.92906E-01  0.70106E-01
  0.53624E-01  0.43521E-01  0.35148E-01  0.26589E-01  0.20092E-01  0.16910E-01
  0.14700E-01  0.10469E-01  0.33695E-02 -0.56611E-02 -0.14626E-01 -0.20625E-01
 -0.17270E-02 -0.11721E-01 -0.21656E-01 -0.25338E-01 -0.20625E-01 -0.10650E-01
 -0.27277E-03  0.72466E-02  0.11043E-01  0.12472E-01  0.14038E-01  0.16881E-01
  0.19930E-01  0.22737E-01  0.26430E-01  0.28434E-01  0.19592E-01 -0.59156E-02
 -0.37285E-01 -0.51760E-01 -0.37285E-01 -0.59156E-02  0.19592E-01  0.28434E-01
  0.26430E-01  0.22737E-01  0.19930E-01  0.16881E-01  0.14038E-01  0.12472E-01
  0.11043E-01  0.72466E-02 -0.27277E-03 -0.10650E-01 -0.20625E-01 -0.25338E-01
  0.13789E-01 -0.24624E-02 -0.22408E-01 -0.37190E-01 -0.41486E-01 -0.36168E-01
 -0.26116E-01 -0.16540E-01 -0.10074E-01 -0.56129E-02 -0.57152E-03  0.49475E-02
  0.84321E-02  0.11284E-01  0.21589E-01  0.45671E-01  0.77991E-01  0.10486E+00
  0.11851E+00  0.12188E+00  0.11851E+00  0.10486E+00  0.77991E-01  0.45671E-01
  0.21589E-01  0.11284E-01  0.84321E-02  0.49475E-02 -0.57152E-03 -0.56129E-02
 -0.10074E-01 -0.16540E-01 -0.26116E-01 -0.36168E-01 -0.41486E-01 -0.37190E-01
 -0.24624E-02 -0.20416E-01 -0.39901E-01 -0.50884E-01 -0.48824E-01 -0.37446E-01
 -0.24155E-01 -0.14179E-01 -0.83208E-02 -0.41781E-02  0.60337E-03  0.53975E-02
  0.79939E-02  0.97130E-02  0.15584E-01  0.25624E-01  0.29451E-01  0.17086E-01
 -0.48556E-02 -0.15974E-01 -0.48556E-02  0.17086E-01  0.29451E-01  0.25624E-01
  0.15584E-01  0.97130E-02  0.79939E-02  0.53975E-02  0.60337E-03 -0.41781E-02
 -0.83208E-02 -0.14179E-01 -0.24155E-01 -0.37446E-01 -0.48824E-01 -0.50884E-01
 -0.22408E-01 -0.39901E-01 -0.54910E-01 -0.58759E-01 -0.49924E-01 -0.34963E-01
 -0.21681E-01 -0.13215E-01 -0.81993E-02 -0.38467E-02  0.16294E-02  0.77267E-02
  0.12852E-01  0.18312E-01  0.29087E-01  0.46772E-01  0.63413E-01  0.68490E-01
  0.62696E-01  0.58247E-01  0.62696E-01  0.68490E-01  0.63413E-01  0.46772E-01
  0.29087E-01  0.18312E-01  0.12852E-01  0.77267E-02  0.16294E-02 -0.38467E-02
 -0.81993E-02 -0.13215E-01 -0.21681E-01 -0.34963E-01 -0.49924E-01 -0.58759E-01
 -0.37190E-01 -0.50884E-01 -0.58759E-01 -0.55628E-01 -0.43270E-01 -0.29018E-01
 -0.18385E-01 -0.11362E-01 -0.55633E-02  0.44142E-03  0.73973E-02  0.15612E-01
  0.24365E-01  0.34636E-01  0.53042E-01  0.88299E-01  0.14067E+00  0.19730E+00
  0.23995E+00  0.25558E+00  0.23995E+00  0.19730E+00  0.14067E+00  0.88299E-01
  0.53042E-01  0.34636E-01  0.24365E-01  0.15612E-01  0.73973E-02  0.44142E-03
 -0.55633E-02 -0.11362E-01 -0.18385E-01 -0.29018E-01 -0.43270E-01 -0.55628E-01
 -0.41486E-01 -0.48824E-01 -0.49924E-01 -0.43270E-01 -0.32025E-01 -0.21624E-01
 -0.13898E-01 -0.64071E-02  0.23462E-02  0.10916E-01  0.18716E-01  0.27461E-01
  0.37673E-01  0.49146E-01  0.68151E-01  0.10892E+00  0.18060E+00  0.27148E+00
  0.34937E+00  0.38014E+00  0.34937E+00  0.27148E+00  0.18060E+00  0.10892E+00
  0.68151E-01  0.49146E-01  0.37673E-01  0.27461E-01  0.18716E-01  0.10916E-01
  0.23462E-02 -0.64071E-02 -0.13898E-01 -0.21624E-01 -0.32025E-01 -0.43270E-01
 -0.36168E-01 -0.37446E-01 -0.34963E-01 -0.29018E-01 -0.21624E-01 -0.15176E-01
 -0.87862E-02  0.60878E-03  0.12620E-01  0.22921E-01  0.29729E-01  0.36274E-01
  0.44833E-01  0.53937E-01  0.66316E-01  0.95087E-01  0.15338E+00  0.23506E+00
  0.30951E+00  0.33980E+00  0.30951E+00  0.23506E+00  0.15338E+00  0.95087E-01
  0.66316E-01  0.53937E-01  0.44833E-01  0.36274E-01  0.29729E-01  0.22921E-01
  0.12620E-01  0.60878E-03 -0.87862E-02 -0.15176E-01 -0.21624E-01 -0.29018E-01
 -0.26116E-01 -0.24155E-01 -0.21681E-01 -0.18385E-01 -0.13898E-01 -0.87862E-02
 -0.20904E-02  0.82748E-02  0.20798E-01  0.30057E-01  0.33671E-01  0.35827E-01
  0.40897E-01  0.47667E-01  0.54701E-01  0.68535E-01  0.99409E-01  0.14668E+00
  0.19207E+00  0.21098E+00  0.19207E+00  0.14668E+00  0.99409E-01  0.68535E-01
  0.54701E-01  0.47667E-01  0.40897E-01  0.35827E-01  0.33671E-01  0.30057E-01
  0.20798E-01  0.82748E-02 -0.20904E-02 -0.87862E-02 -0.13898E-01 -0.18385E-01
 -0.16540E-01 -0.14179E-01 -0.13215E-01 -0.11362E-01 -0.64071E-02  0.60878E-03
  0.82748E-02  0.17026E-01  0.25883E-01  0.30719E-01  0.29464E-01  0.26418E-01
  0.27640E-01  0.33864E-01  0.41773E-01  0.50957E-01  0.65023E-01  0.84856E-01
  0.10379E+00  0.11171E+00  0.10379E+00  0.84856E-01  0.65023E-01  0.50957E-01
  0.41773E-01  0.33864E-01  0.27640E-01  0.26418E-01  0.29464E-01  0.30719E-01
  0.25883E-01  0.17026E-01  0.82748E-02  0.60878E-03 -0.64071E-02 -0.11362E-01
 -0.10074E-01 -0.83208E-02 -0.81993E-02 -0.55633E-02  0.23462E-02  0.12620E-01
  0.20798E-01  0.25883E-01  0.28464E-01  0.27171E-01  0.21086E-01  0.14007E-01
  0.12206E-01  0.18034E-01  0.28449E-01  0.39578E-01  0.50100E-01  0.59826E-01
  0.67305E-01  0.70181E-01  0.67305E-01  0.59826E-01  0.50100E-01  0.39578E-01
  0.28449E-01  0.18034E-01  0.12206E-01  0.14007E-01  0.21086E-01  0.27171E-01
  0.28464E-01  0.25883E-01  0.20798E-01  0.12620E-01  0.23462E-02 -0.55633E-02
 -0.56129E-02 -0.41781E-02 -0.38467E-02  0.44142E-03  0.10916E-01  0.22921E-01
  0.30057E-01  0.30719E-01  0.27171E-01  0.20880E-01  0.12410E-01  0.45639E-02
  0.16993E-02  0.53613E-02  0.12835E-01  0.20467E-01  0.26729E-01  0.31712E-01
  0.35255E-01  0.36584E-01  0.35255E-01  0.31712E-01  0.26729E-01  0.20467E-01
  0.12835E-01  0.53613E-02  0.16993E-02  0.45639E-02  0.12410E-01  0.20880E-01
  0.27171E-01  0.30719E-01  0.30057E-01  0.22921E-01  0.10916E-01  0.44142E-03
 -0.57152E-03  0.60337E-03  0.16294E-02  0.73973E-02  0.18716E-01  0.29729E-01
  0.33671E-01  0.29464E-01  0.21086E-01  0.12410E-01  0.50557E-02 -0.94816E-04
 -0.25036E-02 -0.34814E-02 -0.58269E-02 -0.10952E-01 -0.17360E-01 -0.22477E-01
 -0.25157E-01 -0.25889E-01 -0.25157E-01 -0.22477E-01 -0.17360E-01 -0.10952E-01
 -0.58269E-02 -0.34814E-02 -0.25036E-02 -0.94816E-04  0.50557E-02  0.12410E-01
  0.21086E-01  0.29464E-01  0.33671E-01  0.29729E-01  0.18716E-01  0.73973E-02
  0.49475E-02  0.53975E-02  0.77267E-02  0.15612E-01  0.27461E-01  0.36274E-01
  0.35827E-01  0.26418E-01  0.14007E-01  0.45639E-02 -0.94816E-04 -0.22849E-02
 -0.62138E-02 -0.15633E-01 -0.31908E-01 -0.53164E-01 -0.75288E-01 -0.94014E-01
 -0.10632E+00 -0.11058E+00 -0.10632E+00 -0.94014E-01 -0.75288E-01 -0.53164E-01
 -0.31908E-01 -0.15633E-01 -0.62138E-02 -0.22849E-02 -0.94816E-04  0.45639E-02
  0.14007E-01  0.26418E-01  0.35827E-01  0.36274E-01  0.27461E-01  0.15612E-01
  0.84321E-02  0.79939E-02  0.12852E-01  0.24365E-01  0.37673E-01  0.44833E-01
  0.40897E-01  0.27640E-01  0.12206E-01  0.16993E-02 -0.25036E-02 -0.62138E-02
 -0.17866E-01 -0.41671E-01 -0.74981E-01 -0.11189E+00 -0.14790E+00 -0.17992E+00
 -0.20333E+00 -0.21212E+00 -0.20333E+00 -0.17992E+00 -0.14790E+00 -0.11189E+00
 -0.74981E-01 -0.41671E-01 -0.17866E-01 -0.62138E-02 -0.25036E-02  0.16993E-02
  0.12206E-01  0.27640E-01  0.40897E-01  0.44833E-01  0.37673E-01  0.24365E-01
  0.11284E-01  0.97130E-02  0.18312E-01  0.34636E-01  0.49146E-01  0.53937E-01
  0.47667E-01  0.33864E-01  0.18034E-01  0.53613E-02 -0.34814E-02 -0.15633E-01
 -0.41671E-01 -0.85492E-01 -0.14036E+00 -0.19652E+00 -0.24965E+00 -0.29845E+00
 -0.33616E+00 -0.35083E+00 -0.33616E+00 -0.29845E+00 -0.24965E+00 -0.19652E+00
 -0.14036E+00 -0.85492E-01 -0.41671E-01 -0.15633E-01 -0.34814E-02  0.53613E-02
  0.18034E-01  0.33864E-01  0.47667E-01  0.53937E-01  0.49146E-01  0.34636E-01
  0.21589E-01  0.15584E-01  0.29087E-01  0.53042E-01  0.68151E-01  0.66316E-01
  0.54701E-01  0.41773E-01  0.28449E-01  0.12835E-01 -0.58269E-02 -0.31908E-01
 -0.74981E-01 -0.14036E+00 -0.22125E+00 -0.30513E+00 -0.38497E+00 -0.45756E+00
 -0.51290E+00 -0.53426E+00 -0.51290E+00 -0.45756E+00 -0.38497E+00 -0.30513E+00
 -0.22125E+00 -0.14036E+00 -0.74981E-01 -0.31908E-01 -0.58269E-02  0.12835E-01
  0.28449E-01  0.41773E-01  0.54701E-01  0.66316E-01  0.68151E-01  0.53042E-01
  0.45671E-01  0.25624E-01  0.46772E-01  0.88299E-01  0.10892E+00  0.95087E-01
  0.68535E-01  0.50957E-01  0.39578E-01  0.20467E-01 -0.10952E-01 -0.53164E-01
 -0.11189E+00 -0.19652E+00 -0.30513E+00 -0.42270E+00 -0.53369E+00 -0.62810E+00
 -0.69485E+00 -0.71953E+00 -0.69485E+00 -0.62810E+00 -0.53369E+00 -0.42270E+00
 -0.30513E+00 -0.19652E+00 -0.11189E+00 -0.53164E-01 -0.10952E-01  0.20467E-01
  0.39578E-01  0.50957E-01  0.68535E-01  0.95087E-01  0.10892E+00  0.88299E-01
  0.77991E-01  0.29451E-01  0.63413E-01  0.14067E+00  0.18060E+00  0.15338E+00
  0.99409E-01  0.65023E-01  0.50100E-01  0.26729E-01 -0.17360E-01 -0.75288E-01
 -0.14790E+00 -0.24965E+00 -0.38497E+00 -0.53369E+00 -0.66586E+00 -0.76292E+00
 -0.82060E+00 -0.83970E+00 -0.82060E+00 -0.76292E+00 -0.66586E+00 -0.53369E+00
 -0.38497E+00 -0.24965E+00 -0.14790E+00 -0.75288E-01 -0.17360E-01  0.26729E-01
  0.50100E-01  0.65023E-01  0.99409E-01  0.15338E+00  0.18060E+00  0.14067E+00
  0.10486E+00  0.17086E-01  0.68490E-01  0.19730E+00  0.27148E+00  0.23506E+00
  0.14668E+00  0.84856E-01  0.59826E-01  0.31712E-01 -0.22477E-01 -0.94014E-01
 -0.17992E+00 -0.29845E+00 -0.45756E+00 -0.62810E+00 -0.76292E+00 -0.83719E+00
 -0.86269E+00 -0.86674E+00 -0.86269E+00 -0.83719E+00 -0.76292E+00 -0.62810E+00
 -0.45756E+00 -0.29845E+00 -0.17992E+00 -0.94014E-01 -0.22477E-01  0.31712E-01
  0.59826E-01  0.84856E-01  0.14668E+00  0.23506E+00  0.27148E+00  0.19730E+00
  0.11851E+00 -0.48556E-02  0.62696E-01  0.23995E+00  0.34937E+00  0.30951E+00
  0.19207E+00  0.10379E+00  0.67305E-01  0.35255E-01 -0.25157E-01 -0.10632E+00
 -0.20333E+00 -0.33616E+00 -0.51290E+00 -0.69485E+00 -0.82060E+00 -0.86269E+00
 -0.85052E+00 -0.83783E+00 -0.85052E+00 -0.86269E+00 -0.82060E+00 -0.69485E+00
 -0.51290E+00 -0.33616E+00 -0.20333E+00 -0.10632E+00 -0.25157E-01  0.35255E-01
  0.67305E-01  0.10379E+00  0.19207E+00  0.30951E+00  0.34937E+00  0.23995E+00
  0.12188E+00 -0.15974E-01  0.58247E-01  0.25558E+00  0.38014E+00  0.33980E+00
  0.21098E+00  0.11171E+00  0.70181E-01  0.36584E-01 -0.25889E-01 -0.11058E+00
 -0.21212E+00 -0.35083E+00 -0.53426E+00 -0.71953E+00 -0.83970E+00 -0.86674E+00
 -0.83783E+00 -0.81782E+00 -0.83783E+00 -0.86674E+00 -0.83970E+00 -0.71953E+00
 -0.53426E+00 -0.35083E+00 -0.21212E+00 -0.11058E+00 -0.25889E-01  0.36584E-01
  0.70181E-01  0.11171E+00  0.21098E+00  0.33980E+00  0.38014E+00  0.25558E+00
  0.11851E+00 -0.48556E-02  0.62696E-01  0.23995E+00  0.34937E+00  0.30951E+00
  0.19207E+00  0.10379E+00  0.67305E-01  0.35255E-01 -0.25157E-01 -0.10632E+00
 -0.20333E+00 -0.33616E+00 -0.51290E+00 -0.69485E+00 -0.82060E+00 -0.86269E+00
 -0.85052E+00 -0.83783E+00 -0.85052E+00 -0.86269E+00 -0.82060E+00 -0.69485E+00
 -0.51290E+00 -0.33616E+00 -0.20333E+00 -0.10632E+00 -0.25157E-01  0.35255E-01
  0.67305E-01  0.10379E+00  0.19207E+00  0.30951E+00  0.34937E+00  0.23995E+00
  0.10486E+00  0.17086E-01  0.68490E-01  0.19730E+00  0.27148E+00  0.23506E+00
  0.14668E+00  0.84856E-01  0.59826E-01  0.31712E-01 -0.22477E-01 -0.94014E-01
 -0.17992E+00 -0.29845E+00 -0.45756E+00 -0.62810E+00 -0.76292E+00 -0.83719E+00
 -0.86269E+00 -0.86674E+00 -0.86269E+00 -0.83719E+00 -0.76292E+00 -0.62810E+00
 -0.45756E+00 -0.29845E+00 -0.17992E+00 -0.94014E-01 -0.22477E-01  0.31712E-01
  0.59826E-01  0.84856E-01  0.14668E+00  0.23506E+00  0.27148E+00  0.19730E+00
  0.77991E-01  0.29451E-01  0.63413E-01  0.14067E+00  0.18060E+00  0.15338E+00
  0.99409E-01  0.65023E-01  0.50100E-01  0.26729E-01 -0.17360E-01 -0.75288E-01
 -0.14790E+00 -0.24965E+00 -0.38497E+00 -0.53369E+00 -0.66586E+00 -0.76292E+00
 -0.82060E+00 -0.83970E+00 -0.82060E+00 -0.76292E+00 -0.66586E+00 -0.53369E+00
 -0.38497E+00 -0.24965E+00 -0.14790E+00 -0.75288E-01 -0.17360E-01  0.26729E-01
  0.50100E-01  0.65023E-01  0.99409E-01  0.15338E+00  0.18060E+00  0.14067E+00
  0.45671E-01  0.25624E-01  0.46772E-01  0.88299E-01  0.10892E+00  0.95087E-01
  0.68535E-01  0.50957E-01  0.39578E-01  0.20467E-01 -0.10952E-01 -0.53164E-01
 -0.11189E+00 -0.19652E+00 -0.30513E+00 -0.42270E+00 -0.53369E+00 -0.62810E+00
 -0.69485E+00 -0.71953E+00 -0.69485E+00 -0.62810E+00 -0.53369E+00 -0.42270E+00
 -0.30513E+00 -0.19652E+00 -0.11189E+00 -0.53164E-01 -0.10952E-01  0.20467E-01
  0.39578E-01  0.50957E-01  0.68535E-01  0.95087E-01  0.10892E+00  0.88299E-01
  0.21589E-01  0.15584E-01  0.29087E-01  0.53042E-01  0.68151E-01  0.66316E-01
  0.54701E-01  0.41773E-01  0.28449E-01  0.12835E-01 -0.58269E-02 -0.31908E-01
 -0.74981E-01 -0.14036E+00 -0.22125E+00 -0.30513E+00 -0.38497E+00 -0.45756E+00
 -0.51290E+00 -0.53426E+00 -0.51290E+00 -0.45756E+00 -0.38497E+00 -0.30513E+00
 -0.22125E+00 -0.14036E+00 -0.74981E-01 -0.31908E-01 -0.58269E-02  0.12835E-01
  0.28449E-01  0.41773E-01  0.54701E-01  0.66316E-01  0.68151E-01  0.53042E-01
  0.11284E-01  0.97130E-02  0.18312E-01  0.34636E-01  0.49146E-01  0.53937E-01