 #
 # Generated by SCP.
 #
 BEGIN_BLOCK_DATAGRID_3D
 3D_field
 BEGIN_DATAGRID_3D_UNKNOWN
    36    36    36
    -0.116785    -0.116785    -0.116785
  0.116785000  0.000000000  0.000000000
  0.000000000  0.116785000  0.000000000
  0.000000000  0.000000000  0.116785000
  0.019991129  0.016089637  0.007763112 -0.000836659 -0.006252362 -0.007405643
 -0.005270762 -0.001945297  0.000703609  0.002470074  0.004342117  0.006359012
  0.007497147  0.008048032  0.009536017  0.011245701  0.009933784  0.004507699
 -0.002351627 -0.012396559 -0.002161287 -0.004415825 -0.005817583 -0.005564044
 -0.004388308 -0.003599970 -0.003344744 -0.002879135 -0.002021069 -0.001194064
 -0.000356247  0.001039062  0.002988928  0.004484000  0.004063346  0.000586500
  0.014040861  0.009911951  0.001930835 -0.005495501 -0.008829946 -0.007626374
 -0.003811838  0.000172075  0.002888987  0.004520461  0.005856990  0.006666784
  0.006194816  0.004916099  0.003401768  0.000110927 -0.005235493 -0.006391550
  0.004155459  0.021905102  0.004798039  0.005651171  0.002946679 -0.000053710
 -0.001547964 -0.002191985 -0.002774728 -0.003051515 -0.002775070 -0.002240032
 -0.001510149 -0.000095590  0.002265145  0.004876838  0.006110161  0.004137036
  0.005847368  0.001671804 -0.004794360 -0.009695438 -0.010263489 -0.006852330
 -0.001892006  0.002265715  0.004626357  0.005680084  0.006351634  0.006606735
  0.005857365  0.004430262  0.002478149 -0.001793070 -0.008193530 -0.009172833
  0.003869500  0.015815849  0.006008462  0.007392410  0.004441766  0.000851045
 -0.001117249 -0.001973926 -0.002642378 -0.003069222 -0.003078153 -0.002901750
 -0.002513427 -0.001319106  0.001188568  0.004674276  0.007648113  0.007938973
 -0.000534943 -0.004068532 -0.008321113 -0.010650162 -0.009371391 -0.005167256
 -0.000139491  0.003850750  0.006001597  0.006807965  0.007535404  0.008688321
  0.009533159  0.009710912  0.009543919  0.008001515  0.003724411 -0.000533969
  0.000528352  0.001924418  0.001252391  0.000395486 -0.001949037 -0.003729826
 -0.004272936 -0.004336761 -0.004348359 -0.004116568 -0.003757393 -0.003610865
 -0.003416785 -0.002372057  0.000093651  0.003806987  0.007627240  0.009639896
 -0.003307682 -0.005481645 -0.007451441 -0.007963261 -0.006204033 -0.002602709
  0.001655705  0.005416397  0.007876842  0.009211294  0.010888592  0.013972472
  0.017354698  0.019395532  0.020429854  0.021075242  0.019204328  0.011811836
 -0.000914337 -0.001828476 -0.004578876 -0.008097191 -0.009723941 -0.009669699
 -0.009109243 -0.008714732 -0.008043021 -0.006793177 -0.005627741 -0.005116981
 -0.004747718 -0.003572382 -0.001204360  0.002103858  0.005615524  0.008135723
 -0.003111222 -0.003849604 -0.004112356 -0.003668716 -0.002186645  0.000308765
  0.003494322  0.006940877  0.009986368  0.012362283  0.015208532  0.019813505
  0.024962961  0.027859283  0.028134143  0.027762550  0.025971388  0.017824783
  0.000156217 -0.000336192 -0.006931750 -0.011379758 -0.012755425 -0.012571415
 -0.012537800 -0.012654585 -0.011827572 -0.009961100 -0.008224141 -0.007273030
 -0.006456236 -0.004976335 -0.002802673 -0.000279476  0.002254133  0.004350842
 -0.001636452 -0.001485970 -0.000903856 -0.000080487  0.001145662  0.002897585
  0.005208721  0.008221347  0.011709353  0.015013710  0.018290101  0.022579648
  0.027397035  0.030069907  0.029196824  0.026523123  0.023075679  0.015812372
  0.001402201 -0.000173465 -0.005729089 -0.009454022 -0.011023298 -0.011892521
 -0.013064152 -0.013893544 -0.013376955 -0.011855364 -0.010473251 -0.009489563
 -0.008257865 -0.006535391 -0.004714626 -0.003018263 -0.001389646  0.000115263
 -0.000384506  0.000047038  0.000806273  0.001722531  0.002983992  0.004660531
  0.006714399  0.009544465  0.013355227  0.017117498  0.019689473  0.021638042
  0.024013205  0.025824239  0.025102970  0.021911962  0.017579545  0.011483830
  0.001757323 -0.001077907 -0.003763920 -0.006463413 -0.008194527 -0.009770084
 -0.011345651 -0.012235649 -0.012209360 -0.012020183 -0.012128691 -0.011844994
 -0.010507043 -0.008639085 -0.007080007 -0.005805724 -0.004465477 -0.003162743
  0.000055331  0.000440003  0.001070240  0.001904878  0.003251981  0.005205160
  0.007587518  0.010713369  0.014837253  0.018565359  0.019777494  0.018749904
  0.018086137  0.018764217  0.018779020  0.016587326  0.012978269  0.008416024
  0.001774941 -0.001920943 -0.002576795 -0.004481341 -0.005926677 -0.007396000
 -0.008642176 -0.009216498 -0.009710796 -0.011213805 -0.013387079 -0.014429598
 -0.013429802 -0.011462229 -0.009759295 -0.008217027 -0.006474161 -0.004969869
 -0.000124970  0.000102853  0.000569449  0.001247162  0.002517991  0.004615458
  0.007312922  0.010626570  0.014576635  0.017670559  0.017611515  0.014693931
  0.012205115  0.011859474  0.011492582  0.009191960  0.006386812  0.004312522
  0.001275622 -0.001968115 -0.001401283 -0.002183607 -0.002871949 -0.004130099
 -0.005445241 -0.006129539 -0.007054606 -0.009691375 -0.013491785 -0.015994344
 -0.015872558 -0.014213993 -0.012336432 -0.010182242 -0.007675471 -0.005777384
 -0.000850044 -0.000707127 -0.000270690  0.000298231  0.001385242  0.003379979
  0.005989738  0.008807565  0.011647183  0.013470713  0.012565460  0.009223715
  0.006266272  0.004921803  0.002779307 -0.001425633 -0.004374009 -0.003331540
 -0.000698406  0.000874980  0.000617504  0.001613106  0.001950279  0.000652540
 -0.001377234 -0.002734118 -0.004007094 -0.006943650 -0.011373510 -0.014990873
 -0.016361985 -0.016171588 -0.015128029 -0.012793108 -0.009379569 -0.006679810
 -0.002325437 -0.001909095 -0.001354180 -0.001048959 -0.000455364  0.001206905
  0.003654747  0.005914956  0.007505614  0.008095155  0.006828672  0.003599677
 -0.000071090 -0.003451181 -0.008181614 -0.014391057 -0.017523447 -0.013476871
 -0.004342894  0.007670262  0.003216580  0.006282107  0.007825733  0.006818552
  0.004339432  0.002125923  0.000052376 -0.003258214 -0.007811607 -0.012114218
 -0.015418981 -0.018030274 -0.019264967 -0.017431925 -0.012737207 -0.008233137
 -0.004311237 -0.003020703 -0.002338361 -0.002947710 -0.003761634 -0.003013831
 -0.000537013  0.002134380  0.003764104  0.004193466  0.003163058 -0.000050473
 -0.005535217 -0.012713123 -0.021185800 -0.029376225 -0.032623919 -0.026081575
 -0.010052792  0.018932922  0.006417938  0.011810237  0.014818836  0.014768690
  0.012464119  0.009114808  0.005010151  0.000059858 -0.005151978 -0.010078009
 -0.015259823 -0.020930332 -0.024842916 -0.023655144 -0.017235046 -0.009939106
 -0.006847050 -0.003681930 -0.002868780 -0.005301964 -0.008603372 -0.009456428
 -0.006987415 -0.003117814 -0.000039501  0.001508757  0.001345420 -0.001543795
 -0.008536371 -0.019809498 -0.033666931 -0.046593422 -0.052869206 -0.045286037
 -0.020203768  0.037624301  0.011371233  0.020192093  0.025049686  0.025883186
  0.023296899  0.017930385  0.010633943  0.002834564 -0.004101178 -0.010215899
 -0.016896913 -0.024471299 -0.030102679 -0.029527364 -0.021786829 -0.011564697
 -0.011909126 -0.003811888 -0.002465452 -0.008314932 -0.015301012 -0.017647462
 -0.014749179 -0.009573451 -0.004771555 -0.001387523  0.000063237 -0.001498803
 -0.007909718 -0.020900484 -0.040243158 -0.061920069 -0.077001113 -0.071970121
 -0.036273257  0.062200731  0.018366642  0.032337360  0.039797832  0.040839350
  0.036425723  0.027956279  0.017449766  0.006943092 -0.002479022 -0.010890482
 -0.019012788 -0.027229563 -0.033966796 -0.035105840 -0.027327729 -0.013673396
 -0.021470487 -0.000191431  0.002778764 -0.011044397 -0.025638225 -0.029356859
 -0.023923429 -0.016411041 -0.009899636 -0.004077323  0.000408243  0.001737462
 -0.001789401 -0.012736737 -0.034112897 -0.064301322 -0.091578674 -0.094307714
 -0.052987898  0.077629823  0.024699773  0.044683452  0.056412350  0.058201749
  0.051049188  0.038824779  0.025845207  0.013637105  0.001468214 -0.010325247
 -0.020338999 -0.029310251 -0.038650694 -0.043999952 -0.036261373 -0.014919302
 -0.032877215  0.015565155  0.021806307 -0.008833151 -0.040350252 -0.047973533
 -0.037096899 -0.024264839 -0.015093849 -0.006089601  0.003275930  0.009567452
  0.011073714  0.006383010 -0.009796047 -0.040965297 -0.077086992 -0.092157359
 -0.058797560  0.067535411  0.026216597  0.051194481  0.069774580  0.075216466
  0.066329720  0.050099372  0.034577285  0.020868621  0.005850836 -0.009573165
 -0.021731148 -0.032778110 -0.047767627 -0.059525318 -0.048619707 -0.010394861
 -0.039913153  0.048112296  0.059034999  0.002948268 -0.056030646 -0.072603275
 -0.055160699 -0.034141500 -0.021157822 -0.009061048  0.005749347  0.018601966
  0.027579351  0.033917137  0.031924143  0.011385968 -0.025192055 -0.054524289
 -0.045650847  0.037448718  0.021629593  0.049352158  0.076791721  0.089366903
  0.080843399  0.060576278  0.041335830  0.025128430  0.007258977 -0.010918036
 -0.024647377 -0.038780480 -0.061451142 -0.079658307 -0.060728932  0.003163891
 -0.040561487  0.085186478  0.100582224  0.019692574 -0.067335801 -0.094860666
 -0.072536074 -0.043786305 -0.027315000 -0.013397987  0.005257239  0.023978936
  0.040946678  0.060065932  0.076213810  0.073138569  0.044036640  0.005511522
 -0.016251489  0.011254623  0.014709885  0.043259185  0.078649791  0.098799094
  0.091833210  0.068227396  0.044925563  0.025732644  0.005557540 -0.014012832
 -0.028344741 -0.045167039 -0.074478160 -0.097044495 -0.068683139  0.020038257
 -0.039584667  0.101944144  0.119223587  0.027862711 -0.071281791 -0.103912847
 -0.079873307 -0.047958115 -0.030092904 -0.015685440  0.004248807  0.025332891
  0.045917624  0.071056541  0.096005001  0.102135829  0.078699096  0.040067731
  0.011445803  0.000000000  0.011445803  0.040067731  0.078699096  0.102135829
  0.096005001  0.071056541  0.045917624  0.025332891  0.004248807 -0.015685440
 -0.030092904 -0.047958115 -0.079873307 -0.103912847 -0.071281791  0.027862711
 -0.040561487  0.085186478  0.100582224  0.019692574 -0.067335801 -0.094860666
 -0.072536074 -0.043786305 -0.027315000 -0.013397987  0.005257239  0.023978936
  0.040946678  0.060065932  0.076213810  0.073138569  0.044036640  0.005511522
 -0.016251489  0.011254623  0.014709885  0.043259185  0.078649791  0.098799094
  0.091833210  0.068227396  0.044925563  0.025732644  0.005557540 -0.014012832
 -0.028344741 -0.045167039 -0.074478160 -0.097044495 -0.068683139  0.020038257
 -0.039913153  0.048112296  0.059034999  0.002948268 -0.056030646 -0.072603275
 -0.055160699 -0.034141500 -0.021157822 -0.009061048  0.005749347  0.018601966
  0.027579351  0.033917137  0.031924143  0.011385968 -0.025192055 -0.054524289
 -0.045650847  0.037448718  0.021629593  0.049352158  0.076791721  0.089366903
  0.080843399  0.060576278  0.041335830  0.025128430  0.007258977 -0.010918036
 -0.024647377 -0.038780480 -0.061451142 -0.079658307 -0.060728932  0.003163891
 -0.032877215  0.015565155  0.021806307 -0.008833151 -0.040350252 -0.047973533
 -0.037096899 -0.024264839 -0.015093849 -0.006089601  0.003275930  0.009567452
  0.011073714  0.006383010 -0.009796047 -0.040965297 -0.077086992 -0.092157359
 -0.058797560  0.067535411  0.026216597  0.051194481  0.069774580  0.075216466
  0.066329720  0.050099372  0.034577285  0.020868621  0.005850836 -0.009573165
 -0.021731148 -0.032778110 -0.047767627 -0.059525318 -0.048619707 -0.010394861
 -0.021470487 -0.000191431  0.002778764 -0.011044397 -0.025638225 -0.029356859
 -0.023923429 -0.016411041 -0.009899636 -0.004077323  0.000408243  0.001737462
 -0.001789401 -0.012736737 -0.034112897 -0.064301322 -0.091578674 -0.094307714
 -0.052987898  0.077629823  0.024699773  0.044683452  0.056412350  0.058201749
  0.051049188  0.038824779  0.025845207  0.013637105  0.001468214 -0.010325247
 -0.020338999 -0.029310251 -0.038650694 -0.043999952 -0.036261373 -0.014919302
 -0.011909126 -0.003811888 -0.002465452 -0.008314932 -0.015301012 -0.017647462
 -0.014749179 -0.009573451 -0.004771555 -0.001387523  0.000063237 -0.001498803
 -0.007909718 -0.020900484 -0.040243158 -0.061920069 -0.077001113 -0.071970121
 -0.036273257  0.062200731  0.018366642  0.032337360  0.039797832  0.040839350
  0.036425723  0.027956279  0.017449766  0.006943092 -0.002479022 -0.010890482
 -0.019012788 -0.027229563 -0.033966796 -0.035105840 -0.027327729 -0.013673396
 -0.006847050 -0.003681930 -0.002868780 -0.005301964 -0.008603372 -0.009456428
 -0.006987415 -0.003117814 -0.000039501  0.001508757  0.001345420 -0.001543795
 -0.008536371 -0.019809498 -0.033666931 -0.046593422 -0.052869206 -0.045286037
 -0.020203768  0.037624301  0.011371233  0.020192093  0.025049686  0.025883186
  0.023296899  0.017930385  0.010633943  0.002834564 -0.004101178 -0.010215899
 -0.016896913 -0.024471299 -0.030102679 -0.029527364 -0.021786829 -0.011564697
 -0.004311237 -0.003020703 -0.002338361 -0.002947710 -0.003761634 -0.003013831
 -0.000537013  0.002134380  0.003764104  0.004193466  0.003163058 -0.000050473
 -0.005535217 -0.012713123 -0.021185800 -0.029376225 -0.032623919 -0.026081575
 -0.010052792  0.018932922  0.006417938  0.011810237  0.014818836  0.014768690
  0.012464119  0.009114808  0.005010151  0.000059858 -0.005151978 -0.010078009
 -0.015259823 -0.020930332 -0.024842916 -0.023655144 -0.017235046 -0.009939106
 -0.002325437 -0.001909095 -0.001354180 -0.001048959 -0.000455364  0.001206905
  0.003654747  0.005914956  0.007505614  0.008095155  0.006828672  0.003599677
 -0.000071090 -0.003451181 -0.008181614 -0.014391057 -0.017523447 -0.013476871
 -0.004342894  0.007670262  0.003216580  0.006282107  0.007825733  0.006818552
  0.004339432  0.002125923  0.000052376 -0.003258214 -0.007811607 -0.012114218
 -0.015418981 -0.018030274 -0.019264967 -0.017431925 -0.012737207 -0.008233137
 -0.000850044 -0.000707127 -0.000270690  0.000298231  0.001385242  0.003379979
  0.005989738  0.008807565  0.011647183  0.013470713  0.012565460  0.009223715
  0.006266272  0.004921803  0.002779307 -0.001425633 -0.004374009 -0.003331540
 -0.000698406  0.000874980  0.000617504  0.001613106  0.001950279  0.000652540
 -0.001377234 -0.002734118 -0.004007094 -0.006943650 -0.011373510 -0.014990873
 -0.016361985 -0.016171588 -0.015128029 -0.012793108 -0.009379569 -0.006679810
 -0.000124970  0.000102853  0.000569449  0.001247162  0.002517991  0.004615458
  0.007312922  0.010626570  0.014576635  0.017670559  0.017611515  0.014693931
  0.012205115  0.011859474  0.011492582  0.009191960  0.006386812  0.004312522
  0.001275622 -0.001968115 -0.001401283 -0.002183607 -0.002871949 -0.004130099
 -0.005445241 -0.006129539 -0.007054606 -0.009691375 -0.013491785 -0.015994344
 -0.015872558 -0.014213993 -0.012336432 -0.010182242 -0.007675471 -0.005777384
  0.000055331  0.000440003  0.001070240  0.001904878  0.003251981  0.005205160
  0.007587518  0.010713369  0.014837253  0.018565359  0.019777494  0.018749904
  0.018086137  0.018764217  0.018779020  0.016587326  0.012978269  0.008416024
  0.001774941 -0.001920943 -0.002576795 -0.004481341 -0.005926677 -0.007396000
 -0.008642176 -0.009216498 -0.009710796 -0.011213805 -0.013387079 -0.014429598
 -0.013429802 -0.011462229 -0.009759295 -0.008217027 -0.006474161 -0.004969869
 -0.000384506  0.000047038  0.000806273  0.001722531  0.002983992  0.004660531
  0.006714399  0.009544465  0.013355227  0.017117498  0.019689473  0.021638042
  0.024013205  0.025824239  0.025102970  0.021911962  0.017579545  0.011483830
  0.001757323 -0.001077907 -0.003763920 -0.006463413 -0.008194527 -0.009770084
 -0.011345651 -0.012235649 -0.012209360 -0.012020183 -0.012128691 -0.011844994
 -0.010507043 -0.008639085 -0.007080007 -0.005805724 -0.004465477 -0.003162743
 -0.001636452 -0.001485970 -0.000903856 -0.000080487  0.001145662  0.002897585
  0.005208721  0.008221347  0.011709353  0.015013710  0.018290101  0.022579648
  0.027397035  0.030069907  0.029196824  0.026523123  0.023075679  0.015812372
  0.001402201 -0.000173465 -0.005729089 -0.009454022 -0.011023298 -0.011892521
 -0.013064152 -0.013893544 -0.013376955 -0.011855364 -0.010473251 -0.009489563
 -0.008257865 -0.006535391 -0.004714626 -0.003018263 -0.001389646  0.000115263
 -0.003111222 -0.003849604 -0.004112356 -0.003668716 -0.002186645  0.000308765
  0.003494322  0.006940877  0.009986368  0.012362283  0.015208532  0.019813505
  0.024962961  0.027859283  0.028134143  0.027762550  0.025971388  0.017824783
  0.000156217 -0.000336192 -0.006931750 -0.011379758 -0.012755425 -0.012571415
 -0.012537800 -0.012654585 -0.011827572 -0.009961100 -0.008224141 -0.007273030
 -0.006456236 -0.004976335 -0.002802673 -0.000279476  0.002254133  0.004350842
 -0.003307682 -0.005481645 -0.007451441 -0.007963261 -0.006204033 -0.002602709
  0.001655705  0.005416397  0.007876842  0.009211294  0.010888592  0.013972472
  0.017354698  0.019395532  0.020429854  0.021075242  0.019204328  0.011811836
 -0.000914337 -0.001828476 -0.004578876 -0.008097191 -0.009723941 -0.009669699
 -0.009109243 -0.008714732 -0.008043021 -0.006793177 -0.005627741 -0.005116981
 -0.004747718 -0.003572382 -0.001204360  0.002103858  0.005615524  0.008135723
 -0.000534943 -0.004068532 -0.008321113 -0.010650162 -0.009371391 -0.005167256
 -0.000139491  0.003850750  0.006001597  0.006807965  0.007535404  0.008688321
  0.009533159  0.009710912  0.009543919  0.008001515  0.003724411 -0.000533969
  0.000528352  0.001924418  0.001252391  0.000395486 -0.001949037 -0.003729826
 -0.004272936 -0.004336761 -0.004348359 -0.004116568 -0.003757393 -0.003610865
 -0.003416785 -0.002372057  0.000093651  0.003806987  0.007627240  0.009639896
  0.005441915 -0.001044235 -0.010123728 -0.017739863 -0.020693073 -0.018667537
 -0.013786792 -0.008814952 -0.005340141 -0.002908796 -0.000283713  0.002295276
  0.003544737  0.004128412  0.006497216  0.010358375  0.011321177  0.006110502
 -0.003696579 -0.020820101 -0.003397380 -0.005985960 -0.006630091 -0.005125021
 -0.002989905 -0.001846683 -0.001581433 -0.001039219  0.000132056  0.001406147
  0.002703789  0.004708422  0.007818174  0.011302898  0.013448214  0.012435685
 -0.000911267 -0.008214364 -0.017292591 -0.023526862 -0.023841247 -0.019102224
 -0.012719791 -0.007605394 -0.004477859 -0.002216762  0.000309181  0.002605653
  0.003524887  0.003757896  0.005003696  0.006269517  0.004698876  0.001165745
  0.000127428  0.001875026  0.000147133 -0.001030709 -0.002644656 -0.003035652
 -0.002276916 -0.001675567 -0.001578837 -0.001192658 -0.000146491  0.001098476
  0.002340694  0.004224885  0.007558603  0.012215302  0.016497706  0.017711118
 -0.007625442 -0.014972698 -0.022484896 -0.025983098 -0.023583622 -0.017443167
 -0.011283077 -0.007076056 -0.004447945 -0.002076857  0.000857471  0.003865156
  0.005924223  0.007472296  0.009943492  0.012324038  0.011095266  0.005417546
 -0.001293231 -0.004214107 -0.002008097 -0.004366015 -0.006014816 -0.005849362
 -0.004482925 -0.003329320 -0.002672538 -0.001795596 -0.000415551  0.001060992
  0.002416499  0.004119701  0.007088088  0.011898751  0.017573967  0.021275893
 -0.011342526 -0.017417844 -0.022300003 -0.023131522 -0.019481937 -0.013974157
 -0.009346989 -0.006012164 -0.003015571  0.000240692  0.003972349  0.008049638
  0.011690644  0.014856140  0.019255200  0.025001521  0.026925159  0.017940818
 -0.003426428 -0.009576526 -0.008121903 -0.013287933 -0.014090313 -0.011654206
 -0.008620803 -0.006634550 -0.005332453 -0.003813958 -0.001980740 -0.000127660
  0.001716802  0.003703486  0.006275356  0.010295489  0.015856067  0.020937284
 -0.010947239 -0.014800684 -0.017122050 -0.016554612 -0.013484551 -0.009886218
 -0.006803168 -0.003308075  0.001256792  0.005954412  0.010173392  0.014496373
  0.018712771  0.022061977  0.026183429  0.033051560  0.037711584  0.028166892
 -0.002494500 -0.005239457 -0.012492119 -0.019308827 -0.019094926 -0.015164649
 -0.011674641 -0.009912809 -0.008672419 -0.007047889 -0.005258092 -0.003307745
 -0.000757523  0.002181839  0.004948623  0.007991365  0.012205417  0.016913138
 -0.007842512 -0.009642327 -0.010468337 -0.009921555 -0.008305828 -0.006447174
 -0.004064705  0.000301781  0.006587723  0.012357720  0.016190426  0.019437473
  0.022892713  0.025199880  0.026848335  0.030818020  0.034829538  0.027636424
  0.000263291 -0.000582076 -0.011682886 -0.017643739 -0.017105962 -0.013954990
 -0.011964788 -0.011446598 -0.010846678 -0.009772052 -0.008755108 -0.007270346
 -0.004258996 -0.000216365  0.003260156  0.005835600  0.008562177  0.011766273
 -0.004280487 -0.004958560 -0.005390196 -0.005393300 -0.004707439 -0.003370561
 -0.000891891  0.003856416  0.010390207  0.015770517  0.018131528  0.019273504
  0.021274026  0.023011537  0.023206149  0.023622102  0.024456784  0.019415032
  0.001871417 -0.000237607 -0.007646202 -0.011608008 -0.011683055 -0.010591752
 -0.010383618 -0.010632284 -0.010387317 -0.010119485 -0.010382449 -0.009967910
 -0.007327555 -0.003065579  0.000807287  0.003510937  0.005709950  0.007723515
 -0.001742358 -0.002079004 -0.002518072 -0.002689383 -0.001822479  0.000202634
  0.003149547  0.007253365  0.012083033  0.015370123  0.015420385  0.014063660
  0.014474912  0.016732956  0.018434341  0.018574394  0.017253086  0.012563440
  0.002031923 -0.001266077 -0.004352070 -0.007071047 -0.008042352 -0.008281932
 -0.008331668 -0.007928155 -0.007359676 -0.007812526 -0.009498938 -0.010635843
 -0.009506162 -0.006565316 -0.003321044 -0.000252426  0.002727299  0.004937981
 -0.000419945 -0.000681994 -0.001028967 -0.000957128  0.000518871  0.003433696
  0.006732727  0.009692834  0.012019025  0.012614540  0.010482131  0.007238967
  0.006335029  0.009006913  0.012933085  0.015146267  0.014256793  0.009842054
  0.002044230 -0.002177789 -0.002967739 -0.005240670 -0.006510530 -0.006753456
 -0.005951855 -0.004423962 -0.003401400 -0.004329428 -0.007095192 -0.009804429
 -0.010878910 -0.010370358 -0.008659838 -0.005420540 -0.001032987  0.002497167
  0.000147166 -0.000050438 -0.000208212  0.000044093  0.001627693  0.004613755
  0.007681550  0.009541797  0.009904336  0.008657575  0.005677582  0.002230859
  0.000855636  0.002660813  0.005932438  0.008143711  0.008099097  0.005755457
  0.001485050 -0.002129081 -0.001631342 -0.002914225 -0.003641910 -0.003659103
 -0.002810818 -0.001375234 -0.000494561 -0.001471362 -0.004349468 -0.007836324
 -0.010784872 -0.012763012 -0.012958284 -0.010178484 -0.004961617 -0.000204257
  0.000055542 -0.000037328 -0.000036543  0.000157215  0.001294254  0.003598197
  0.005937808  0.006897901  0.006173042  0.004342674  0.002034158 -0.000042250
 -0.001187135 -0.001676821 -0.002688939 -0.004470801 -0.005548388 -0.004464166
 -0.001378205  0.002329951  0.001218557  0.002161515  0.002473910  0.002046372
  0.001332454  0.000931493  0.000759137  0.000031806 -0.001841199 -0.004832742
 -0.008671901 -0.012665251 -0.014996871 -0.013619058 -0.008763487 -0.003521316
 -0.000839363 -0.000746153 -0.000792240 -0.000971850 -0.000472438  0.001183999
  0.003119613  0.003844430  0.002897769  0.001229021 -0.000031280 -0.000878650
 -0.002656842 -0.007062542 -0.014323159 -0.021847914 -0.025053258 -0.020236405
 -0.007257104  0.013576051  0.005375001  0.009432996  0.011188444  0.010351647
  0.007596836  0.004350517  0.001957434  0.000795302  0.000035782 -0.001839202
 -0.005952964 -0.011718789 -0.016444164 -0.017101091 -0.013214792 -0.007627915
 -0.002038402 -0.001718798 -0.002365052 -0.003614818 -0.004055997 -0.002763885
 -0.000416995  0.001286582  0.001318452  0.000293982 -0.000599236 -0.001886339
 -0.006438875 -0.016767943 -0.031487244 -0.045005840 -0.050287644 -0.041453048
 -0.016746894  0.032279163  0.010691608  0.018770735  0.022842270  0.022626368
  0.018524707  0.012021954  0.005828088  0.002237067  0.000976034 -0.000706516
 -0.005345056 -0.012616588 -0.019290732 -0.021693357 -0.018583755 -0.012188463
 -0.003512343 -0.002814489 -0.004838625 -0.008111156 -0.009786141 -0.008553732
 -0.005347245 -0.002020205 -0.000018960  0.000338507 -0.000458374 -0.003159242
 -0.011259026 -0.028143532 -0.051804948 -0.074011460 -0.084244228 -0.072326320
 -0.032536951  0.060886785  0.018312685  0.032248787  0.039915323  0.041114223
  0.035848074  0.025473858  0.014025613  0.005800690  0.001397240 -0.002292057
 -0.008110598 -0.015856311 -0.023036616 -0.026708729 -0.024782023 -0.017692133
 -0.008114097 -0.005606946 -0.009892548 -0.016775674 -0.019610172 -0.016840925
 -0.011722907 -0.007030255 -0.003286164 -0.000716236 -0.000061181 -0.002623882
 -0.011755762 -0.032160593 -0.064265625 -0.099705205 -0.122748415 -0.113465599
 -0.056916034  0.097524123  0.028818929  0.050981960  0.063442210  0.065760518
  0.058169438  0.043017688  0.025934590  0.012154937  0.002398418 -0.005621636
 -0.013094081 -0.019996002 -0.026997407 -0.033501407 -0.035023923 -0.027586569
 -0.019776390 -0.010819510 -0.019098863 -0.034509304 -0.040207525 -0.032587794
 -0.021306754 -0.013911358 -0.009039584 -0.003612346  0.001280255  0.002637744
 -0.002741451 -0.020231708 -0.054929418 -0.103190400 -0.146459735 -0.151570276
 -0.085967361  0.126530041  0.040072817  0.071814731  0.090219015  0.093401840
  0.082200647  0.061671335  0.039596145  0.020703295  0.004604336 -0.009147759
 -0.018572005 -0.024845797 -0.034423195 -0.048842466 -0.056867434 -0.046616826
 -0.037468985 -0.013969787 -0.029529002 -0.063858144 -0.079235883 -0.064336032
 -0.039317191 -0.023814231 -0.016580784 -0.007722204  0.004155485  0.013678579
  0.017069409  0.010170982 -0.015615998 -0.065514888 -0.126903948 -0.160287318
 -0.108363050  0.127666269  0.048316808  0.089041462  0.114865938  0.120292020
  0.105737017  0.079830646  0.053298629  0.029835851  0.007421729 -0.012139701
 -0.023871942 -0.032169407 -0.050626573 -0.079827823 -0.095474632 -0.075148335
 -0.054105077 -0.008775131 -0.034866530 -0.099058768 -0.133612517 -0.112567704
 -0.067728407 -0.037351188 -0.024742852 -0.012092803  0.007703956  0.027932071
  0.043833556  0.054169053  0.050330498  0.018299397 -0.043816001 -0.109575384
 -0.108835997  0.097140512  0.051567022  0.099181149  0.133562194  0.143629461
  0.127454901  0.096746361  0.065697572  0.037731984  0.009726817 -0.014571124
 -0.028823685 -0.042426284 -0.075452052 -0.123506174 -0.144816203 -0.106303462
 -0.063759576  0.002612271 -0.033615730 -0.127708655 -0.183705969 -0.159879746
 -0.096808665 -0.050628351 -0.031459156 -0.015597630  0.010374416  0.040069512
  0.068212855  0.096732563  0.119586390  0.118659732  0.081158889  0.013139998
 -0.056684457  0.049850604  0.051307413  0.103134045  0.144950424  0.160291268
  0.144094647  0.109876109  0.074841259  0.043000009  0.010967017 -0.016313419
 -0.032645126 -0.052224838 -0.099400628 -0.163560409 -0.187381784 -0.129950452
 -0.066482702  0.008726184 -0.031766926 -0.138653885 -0.204256400 -0.179912466
 -0.109408461 -0.056330114 -0.034116574 -0.016968307  0.011313994  0.044838186
  0.078285984  0.114989626  0.150525621  0.166472756  0.148769658  0.103934129
  0.050697406  0.000000000  0.050697406  0.103934129  0.148769658  0.166472756
  0.150525621  0.114989626  0.078285984  0.044838186  0.011313994 -0.016968307
 -0.034116574 -0.056330114 -0.109408461 -0.179912466 -0.204256400 -0.138653885
 -0.063759576  0.002612271 -0.033615730 -0.127708655 -0.183705969 -0.159879746
 -0.096808665 -0.050628351 -0.031459156 -0.015597630  0.010374416  0.040069512
  0.068212855  0.096732563  0.119586390  0.118659732  0.081158889  0.013139998
 -0.056684457  0.049850604  0.051307413  0.103134045  0.144950424  0.160291268
  0.144094647  0.109876109  0.074841259  0.043000009  0.010967017 -0.016313419
 -0.032645126 -0.052224838 -0.099400628 -0.163560409 -0.187381784 -0.129950452
 -0.054105077 -0.008775131 -0.034866530 -0.099058768 -0.133612517 -0.112567704
 -0.067728407 -0.037351188 -0.024742852 -0.012092803  0.007703956  0.027932071
  0.043833556  0.054169053  0.050330498  0.018299397 -0.043816001 -0.109575384
 -0.108835997  0.097140512  0.051567022  0.099181149  0.133562194  0.143629461
  0.127454901  0.096746361  0.065697572  0.037731984  0.009726817 -0.014571124
 -0.028823685 -0.042426284 -0.075452052 -0.123506174 -0.144816203 -0.106303462
 -0.037468985 -0.013969787 -0.029529002 -0.063858144 -0.079235883 -0.064336032
 -0.039317191 -0.023814231 -0.016580784 -0.007722204  0.004155485  0.013678579
  0.017069409  0.010170982 -0.015615998 -0.065514888 -0.126903948 -0.160287318
 -0.108363050  0.127666269  0.048316808  0.089041462  0.114865938  0.120292020
  0.105737017  0.079830646  0.053298629  0.029835851  0.007421729 -0.012139701
 -0.023871942 -0.032169407 -0.050626573 -0.079827823 -0.095474632 -0.075148335
 -0.019776390 -0.010819510 -0.019098863 -0.034509304 -0.040207525 -0.032587794
 -0.021306754 -0.013911358 -0.009039584 -0.003612346  0.001280255  0.002637744
 -0.002741451 -0.020231708 -0.054929418 -0.103190400 -0.146459735 -0.151570276
 -0.085967361  0.126530041  0.040072817  0.071814731  0.090219015  0.093401840
  0.082200647  0.061671335  0.039596145  0.020703295  0.004604336 -0.009147759
 -0.018572005 -0.024845797 -0.034423195 -0.048842466 -0.056867434 -0.046616826
 -0.008114097 -0.005606946 -0.009892548 -0.016775674 -0.019610172 -0.016840925
 -0.011722907 -0.007030255 -0.003286164 -0.000716236 -0.000061181 -0.002623882
 -0.011755762 -0.032160593 -0.064265625 -0.099705205 -0.122748415 -0.113465599
 -0.056916034  0.097524123  0.028818929  0.050981960  0.063442210  0.065760518
  0.058169438  0.043017688  0.025934590  0.012154937  0.002398418 -0.005621636
 -0.013094081 -0.019996002 -0.026997407 -0.033501407 -0.035023923 -0.027586569
 -0.003512343 -0.002814489 -0.004838625 -0.008111156 -0.009786141 -0.008553732
 -0.005347245 -0.002020205 -0.000018960  0.000338507 -0.000458374 -0.003159242
 -0.011259026 -0.028143532 -0.051804948 -0.074011460 -0.084244228 -0.072326320
 -0.032536951  0.060886785  0.018312685  0.032248787  0.039915323  0.041114223
  0.035848074  0.025473858  0.014025613  0.005800690  0.001397240 -0.002292057
 -0.008110598 -0.015856311 -0.023036616 -0.026708729 -0.024782023 -0.017692133
 -0.002038402 -0.001718798 -0.002365052 -0.003614818 -0.004055997 -0.002763885
 -0.000416995  0.001286582  0.001318452  0.000293982 -0.000599236 -0.001886339
 -0.006438875 -0.016767943 -0.031487244 -0.045005840 -0.050287644 -0.041453048
 -0.016746894  0.032279163  0.010691608  0.018770735  0.022842270  0.022626368