 #
 # Generated by SCP.
 #
 BEGIN_BLOCK_DATAGRID_3D
 3D_field
 BEGIN_DATAGRID_3D_UNKNOWN
    36    36    36
    -0.116785    -0.116785    -0.116785
  0.116785000  0.000000000  0.000000000
  0.000000000  0.116785000  0.000000000
  0.000000000  0.000000000  0.116785000
  0.402349343  0.431797448  0.459437322  0.484457798  0.505936403  0.522849689
  0.534094172  0.538520397  0.534982184  0.522402088  0.499852342  0.466648006
  0.422445854  0.367339099  0.301935120  0.227401791  0.145468948  0.058375521
 -0.031240067 -0.171074332 -0.028711507 -0.057185729 -0.085191872 -0.112511759
 -0.138945245 -0.164314667 -0.188468141 -0.211281624 -0.232659746 -0.252535517
 -0.270869057 -0.287645536 -0.302872563 -0.316577204 -0.328802844 -0.339606046
  0.376814472  0.409128272  0.440086475  0.468859432  0.494480952  0.515853219
  0.531763129  0.540913573  0.541973033  0.533645941  0.514764431  0.484399037
  0.441981770  0.387430009  0.321254926  0.244634858  0.159433984  0.068151086
 -0.026207483 -0.117208529 -0.030260087 -0.060256660 -0.089733802 -0.118450325
 -0.146186053 -0.172746903 -0.197968579 -0.221718767 -0.243897880 -0.264438465
 -0.283303492 -0.300483757 -0.315994677 -0.329872728 -0.342171751 -0.352959312
  0.346059533  0.381046540  0.415203955  0.447702175  0.477549276  0.503588612
  0.524508083  0.538865747  0.545136741  0.541785946  0.527369130  0.500661925
  0.460810731  0.407492849  0.341065652  0.262678550  0.174319306  0.078770567
 -0.020535476 -0.072021170 -0.031886973 -0.063481405 -0.094499634 -0.124675192
 -0.153766071 -0.181560521 -0.207881168 -0.232587334 -0.255575617 -0.276778927
 -0.296164222 -0.313729263 -0.329498723 -0.343519945 -0.355858621 -0.366594606
  0.309752972  0.347114744  0.384240546  0.420323713  0.454370493  0.485188391
  0.511385562  0.531387137  0.543475274  0.545859933  0.536786174  0.514680442
  0.478332091  0.427097344  0.361101751  0.281406606  0.190098566  0.090264608
 -0.014170644 -0.037179629 -0.033589676 -0.066854813 -0.099481244 -0.131174847
 -0.161669934 -0.190735861 -0.218181587 -0.243858086 -0.267658705 -0.289517706
 -0.309407337 -0.327333817 -0.343332639 -0.357463559 -0.369805574 -0.380452134
  0.267655121  0.306974558  0.346707669  0.386097516  0.424178407  0.459753210
  0.491379981  0.517374808  0.535839573  0.544724675  0.541936684  0.525498200
  0.493760625  0.445659153  0.380983410  0.300619661  0.206707085  0.102649136
 -0.007061607 -0.013630084 -0.035363577 -0.070367524 -0.104664300 -0.137929698
 -0.169872500 -0.200241989 -0.228832971 -0.255488240 -0.280098614 -0.302600868
 -0.322973996 -0.341234294 -0.357429740 -0.371634109 -0.383941175 -0.394459279
  0.219656989  0.260389848  0.302223534  0.344480412  0.386258019  0.426394125
  0.463437993  0.495635322  0.520937280  0.537046904  0.541517958  0.531920452
  0.506081202  0.462394731  0.400178410  0.320018325  0.224026463  0.115918468
  0.000838389 -0.001688052 -0.037201469 -0.074005061 -0.110026959 -0.144910433
 -0.178336938 -0.210034599 -0.239783724 -0.267419253 -0.292830370 -0.315957679
 -0.336788518 -0.355350976 -0.371707237 -0.385946711 -0.398179403 -0.408529782
  0.165824137  0.207297388  0.250570063  0.295074248  0.340009441  0.384295111
  0.426524840  0.464929417  0.497360268  0.521309373  0.533986378  0.532476065
  0.513996381  0.476264430  0.417951294  0.339166034  0.241863147  0.130035951
  0.009568074 -0.001105785 -0.039093069 -0.077746890 -0.115538513 -0.152076334
 -0.187012789 -0.220053917 -0.250965348 -0.279574674 -0.305770501 -0.329498723
 -0.350756705 -0.369586105 -0.386065027 -0.400300101 -0.412418931 -0.422563248
  0.106443612  0.147863662  0.191759711  0.237701979  0.285031227  0.332799959
  0.379709290  0.424047690  0.463642668  0.495843158  0.517558376  0.525386470
  0.515869399  0.485902100  0.433295421  0.357437026  0.259917872  0.144921002
  0.019153805 -0.011086732 -0.041024545 -0.081565499 -0.121158091 -0.159373662
 -0.195834147 -0.230222768 -0.262290500 -0.291858271 -0.318815317 -0.343114373
 -0.364764561 -0.383822857 -0.400384947 -0.414576139 -0.426542867 -0.436445089
  0.042070597  0.082544473  0.126109378  0.172496445  0.221223203  0.271526328
  0.322283389  0.371927423  0.418363247  0.458902477  0.490245744  0.508554721
  0.509669649  0.489531109  0.444842347  0.373942159  0.277740725  0.160430510
  0.029604057 -0.030240597 -0.042978094 -0.085425595 -0.126833521 -0.166734293
 -0.204718141 -0.240445014 -0.273651482 -0.304152667 -0.331839744 -0.356673875
 -0.378677637 -0.397924975 -0.414530651 -0.428639931 -0.440419085 -0.450047036
 -0.026430170  0.012141970  0.054315971  0.099996952  0.148905461  0.200506458
  0.253920899  0.307820218  0.360308359  0.408804146  0.449950562  0.479598235
  0.492936809  0.484871587  0.450742517  0.387421374  0.294662588  0.176330775
  0.040902357 -0.056499827 -0.044931644 -0.089283525 -0.132500550 -0.174074797
 -0.213563987 -0.250604662 -0.284919484 -0.316318774 -0.344697003 -0.370025304
 -0.392341263 -0.411737247 -0.428348340 -0.442340751 -0.453901302 -0.463228330
 -0.097854673 -0.062148587 -0.022475085  0.021244519  0.068944939  0.120348195
  0.174872654  0.231516048  0.288711096  0.344158620  0.394656239  0.435965144
  0.462797032  0.469055808  0.448513987  0.396086113  0.309686293  0.192252282
  0.052997854 -0.087045325 -0.046858735 -0.093087083 -0.138082613 -0.181296240
 -0.222252886 -0.260565936 -0.295944881 -0.328196356 -0.357219457 -0.382996670
 -0.405581909 -0.425087089 -0.441668501 -0.455513908 -0.466831024 -0.475837697
 -0.170649261 -0.138712123 -0.102620472 -0.062138447 -0.017126020  0.032400991
  0.086186688  0.143619187  0.203575188  0.264219423  0.322761832  0.375196934
  0.416095108  0.438596107  0.434868413  0.397389321  0.321307103  0.207611167
  0.065791457 -0.118309811 -0.048728684 -0.096775849 -0.143491379 -0.188284984
 -0.230649106 -0.270174658 -0.306558938 -0.339606046 -0.369220901 -0.395398467
 -0.418209917 -0.437787407 -0.454308845 -0.467983693 -0.479040451 -0.487716171
 -0.242927649 -0.215518172 -0.183963563 -0.147903180 -0.107022711 -0.061100243
 -0.010074909  0.045852318  0.106072926  0.169364549  0.233608407  0.295424657
  0.349754658  0.389507131  0.405563007  0.387702583  0.327207727  0.221461957
  0.079112239 -0.146132466 -0.050507103 -0.100282220 -0.148628302 -0.194914737
 -0.238602523 -0.279261249 -0.316577204 -0.350353072 -0.380500562 -0.407027834
 -0.430023757 -0.449640856 -0.466078504 -0.479567448 -0.490356367 -0.498700770
 -0.312522252 -0.290167074 -0.263868675 -0.233186629 -0.197683239 -0.156953160
 -0.110670680 -0.058663977 -0.001030512  0.061685143  0.128220686  0.196194366
  0.261538981  0.317790936  0.355432595  0.361918767  0.323735266  0.232200363
  0.092669334 -0.166119039 -0.052156833 -0.103533265 -0.153387336 -0.201050068
 -0.245952838 -0.287645536 -0.325804791 -0.360232877 -0.390848903 -0.417674437
 -0.440815859 -0.460445535 -0.476783488 -0.490080731 -0.500604973 -0.508628963
 -0.377073932 -0.359985677 -0.339318250 -0.314602032 -0.285338872 -0.251016478
 -0.211133872 -0.165244696 -0.113029854 -0.054419087  0.010204975  0.079664239
  0.151416946  0.220653118  0.279001369  0.313170489  0.305039467  0.236923071
  0.105935156 -0.174212219 -0.053639327 -0.106453434 -0.157658883 -0.206551438
 -0.252535517 -0.295143406 -0.334043533 -0.369038570 -0.400055195 -0.427127974
 -0.450379911 -0.470001952 -0.486233250 -0.499343425 -0.509617501 -0.517343789
 -0.434159442 -0.422174327 -0.407079360 -0.388422213 -0.365706566 -0.338395893
 -0.305922289 -0.267703724 -0.223175887 -0.171850419 -0.113422904 -0.047977644
  0.023616216  0.098933798  0.172531340  0.233424046  0.261907779  0.229985158
  0.117811099 -0.167403065 -0.054916454 -0.108968082 -0.161334867 -0.211281624
 -0.258189298 -0.301575102 -0.341100791 -0.376569969 -0.407916541 -0.435186992
 -0.458519307 -0.478120987 -0.494248084 -0.507186516 -0.517236367 -0.524699388
 -0.481449372 -0.473998254 -0.463934361 -0.450854970 -0.434312657 -0.413814660
 -0.388823783 -0.358761567 -0.323015080 -0.280950433 -0.231940644 -0.175427268
 -0.111065900 -0.039085236  0.038806983  0.117157517  0.181534928  0.199829480
  0.125488336 -0.144436055 -0.055952613 -0.111007591 -0.164314667 -0.215113156
 -0.262764804 -0.306774673 -0.346799372 -0.382643678 -0.414247840 -0.441668501
 -0.465056242 -0.484632363 -0.500666891 -0.513459140 -0.523321501 -0.530566634
 -0.516882545 -0.513006300 -0.506955770 -0.498388691 -0.486926621 -0.472155005
 -0.453624170 -0.430851065 -0.403321112 -0.370488934 -0.331776012 -0.286563241
 -0.234179767 -0.173907282 -0.105093141 -0.027766589  0.054625212  0.124303049
  0.119705390 -0.106309879 -0.056716993 -0.112511759 -0.166511387 -0.217936163
 -0.266133584 -0.310599794 -0.350987770 -0.387103395 -0.418891874 -0.446417624
 -0.469840771 -0.489392995 -0.505354783 -0.518035425 -0.527756429 -0.534838507
 -0.538836913 -0.537250745 -0.533790925 -0.528163433 -0.520047894 -0.509100336
 -0.494957854 -0.477245334 -0.455584099 -0.429601660 -0.398940565 -0.363262180
 -0.322237175 -0.275506523 -0.222580561 -0.162613268 -0.093984933 -0.014452282
  0.063178822 -0.056385885 -0.057185729 -0.113433987 -0.167857840 -0.219665815
 -0.268196635 -0.312940998 -0.353549724 -0.389829475 -0.421728614 -0.449316440
 -0.472759037 -0.492294534 -0.508209895 -0.520820562 -0.530453651 -0.537434810
 -0.546274198 -0.545476718 -0.542912511 -0.538305855 -0.531358862 -0.521755608
 -0.509168781 -0.493269375 -0.473739865 -0.450291096 -0.422682751 -0.390746721
 -0.354412041 -0.313729263 -0.268891445 -0.220248483 -0.168311510 -0.113744765
 -0.057343700 -0.000000000 -0.057343700 -0.113744765 -0.168311510 -0.220248483
 -0.268891445 -0.313729263 -0.354412041 -0.390746721 -0.422682751 -0.450291096
 -0.473739865 -0.493269375 -0.509168781 -0.521755608 -0.531358862 -0.538305855
 -0.538836913 -0.537250745 -0.533790925 -0.528163433 -0.520047894 -0.509100336
 -0.494957854 -0.477245334 -0.455584099 -0.429601660 -0.398940565 -0.363262180
 -0.322237175 -0.275506523 -0.222580561 -0.162613268 -0.093984933 -0.014452282
  0.063178822 -0.056385885 -0.057185729 -0.113433987 -0.167857840 -0.219665815
 -0.268196635 -0.312940998 -0.353549724 -0.389829475 -0.421728614 -0.449316440
 -0.472759037 -0.492294534 -0.508209895 -0.520820562 -0.530453651 -0.537434810
 -0.516882545 -0.513006300 -0.506955770 -0.498388691 -0.486926621 -0.472155005
 -0.453624170 -0.430851065 -0.403321112 -0.370488934 -0.331776012 -0.286563241
 -0.234179767 -0.173907282 -0.105093141 -0.027766589  0.054625212  0.124303049
  0.119705390 -0.106309879 -0.056716993 -0.112511759 -0.166511387 -0.217936163
 -0.266133584 -0.310599794 -0.350987770 -0.387103395 -0.418891874 -0.446417624
 -0.469840771 -0.489392995 -0.505354783 -0.518035425 -0.527756429 -0.534838507
 -0.481449372 -0.473998254 -0.463934361 -0.450854970 -0.434312657 -0.413814660
 -0.388823783 -0.358761567 -0.323015080 -0.280950433 -0.231940644 -0.175427268
 -0.111065900 -0.039085236  0.038806983  0.117157517  0.181534928  0.199829480
  0.125488336 -0.144436055 -0.055952613 -0.111007591 -0.164314667 -0.215113156
 -0.262764804 -0.306774673 -0.346799372 -0.382643678 -0.414247840 -0.441668501
 -0.465056242 -0.484632363 -0.500666891 -0.513459140 -0.523321501 -0.530566634
 -0.434159442 -0.422174327 -0.407079360 -0.388422213 -0.365706566 -0.338395893
 -0.305922289 -0.267703724 -0.223175887 -0.171850419 -0.113422904 -0.047977644
  0.023616216  0.098933798  0.172531340  0.233424046  0.261907779  0.229985158
  0.117811099 -0.167403065 -0.054916454 -0.108968082 -0.161334867 -0.211281624
 -0.258189298 -0.301575102 -0.341100791 -0.376569969 -0.407916541 -0.435186992
 -0.458519307 -0.478120987 -0.494248084 -0.507186516 -0.517236367 -0.524699388
 -0.377073932 -0.359985677 -0.339318250 -0.314602032 -0.285338872 -0.251016478
 -0.211133872 -0.165244696 -0.113029854 -0.054419087  0.010204975  0.079664239
  0.151416946  0.220653118  0.279001369  0.313170489  0.305039467  0.236923071
  0.105935156 -0.174212219 -0.053639327 -0.106453434 -0.157658883 -0.206551438
 -0.252535517 -0.295143406 -0.334043533 -0.369038570 -0.400055195 -0.427127974
 -0.450379911 -0.470001952 -0.486233250 -0.499343425 -0.509617501 -0.517343789
 -0.312522252 -0.290167074 -0.263868675 -0.233186629 -0.197683239 -0.156953160
 -0.110670680 -0.058663977 -0.001030512  0.061685143  0.128220686  0.196194366
  0.261538981  0.317790936  0.355432595  0.361918767  0.323735266  0.232200363
  0.092669334 -0.166119039 -0.052156833 -0.103533265 -0.153387336 -0.201050068
 -0.245952838 -0.287645536 -0.325804791 -0.360232877 -0.390848903 -0.417674437
 -0.440815859 -0.460445535 -0.476783488 -0.490080731 -0.500604973 -0.508628963
 -0.242927649 -0.215518172 -0.183963563 -0.147903180 -0.107022711 -0.061100243
 -0.010074909  0.045852318  0.106072926  0.169364549  0.233608407  0.295424657
  0.349754658  0.389507131  0.405563007  0.387702583  0.327207727  0.221461957
  0.079112239 -0.146132466 -0.050507103 -0.100282220 -0.148628302 -0.194914737
 -0.238602523 -0.279261249 -0.316577204 -0.350353072 -0.380500562 -0.407027834
 -0.430023757 -0.449640856 -0.466078504 -0.479567448 -0.490356367 -0.498700770
 -0.170649261 -0.138712123 -0.102620472 -0.062138447 -0.017126020  0.032400991
  0.086186688  0.143619187  0.203575188  0.264219423  0.322761832  0.375196934
  0.416095108  0.438596107  0.434868413  0.397389321  0.321307103  0.207611167
  0.065791457 -0.118309811 -0.048728684 -0.096775849 -0.143491379 -0.188284984
 -0.230649106 -0.270174658 -0.306558938 -0.339606046 -0.369220901 -0.395398467
 -0.418209917 -0.437787407 -0.454308845 -0.467983693 -0.479040451 -0.487716171
 -0.097854673 -0.062148587 -0.022475085  0.021244519  0.068944939  0.120348195
  0.174872654  0.231516048  0.288711096  0.344158620  0.394656239  0.435965144
  0.462797032  0.469055808  0.448513987  0.396086113  0.309686293  0.192252282
  0.052997854 -0.087045325 -0.046858735 -0.093087083 -0.138082613 -0.181296240
 -0.222252886 -0.260565936 -0.295944881 -0.328196356 -0.357219457 -0.382996670
 -0.405581909 -0.425087089 -0.441668501 -0.455513908 -0.466831024 -0.475837697
 -0.026430170  0.012141970  0.054315971  0.099996952  0.148905461  0.200506458
  0.253920899  0.307820218  0.360308359  0.408804146  0.449950562  0.479598235
  0.492936809  0.484871587  0.450742517  0.387421374  0.294662588  0.176330775
  0.040902357 -0.056499827 -0.044931644 -0.089283525 -0.132500550 -0.174074797
 -0.213563987 -0.250604662 -0.284919484 -0.316318774 -0.344697003 -0.370025304
 -0.392341263 -0.411737247 -0.428348340 -0.442340751 -0.453901302 -0.463228330
  0.042070597  0.082544473  0.126109378  0.172496445  0.221223203  0.271526328
  0.322283389  0.371927423  0.418363247  0.458902477  0.490245744  0.508554721
  0.509669649  0.489531109  0.444842347  0.373942159  0.277740725  0.160430510
  0.029604057 -0.030240597 -0.042978094 -0.085425595 -0.126833521 -0.166734293
 -0.204718141 -0.240445014 -0.273651482 -0.304152667 -0.331839744 -0.356673875
 -0.378677637 -0.397924975 -0.414530651 -0.428639931 -0.440419085 -0.450047036
  0.106443612  0.147863662  0.191759711  0.237701979  0.285031227  0.332799959
  0.379709290  0.424047690  0.463642668  0.495843158  0.517558376  0.525386470
  0.515869399  0.485902100  0.433295421  0.357437026  0.259917872  0.144921002
  0.019153805 -0.011086732 -0.041024545 -0.081565499 -0.121158091 -0.159373662
 -0.195834147 -0.230222768 -0.262290500 -0.291858271 -0.318815317 -0.343114373
 -0.364764561 -0.383822857 -0.400384947 -0.414576139 -0.426542867 -0.436445089
  0.165824137  0.207297388  0.250570063  0.295074248  0.340009441  0.384295111
  0.426524840  0.464929417  0.497360268  0.521309373  0.533986378  0.532476065
  0.513996381  0.476264430  0.417951294  0.339166034  0.241863147  0.130035951
  0.009568074 -0.001105785 -0.039093069 -0.077746890 -0.115538513 -0.152076334
 -0.187012789 -0.220053917 -0.250965348 -0.279574674 -0.305770501 -0.329498723
 -0.350756705 -0.369586105 -0.386065027 -0.400300101 -0.412418931 -0.422563248
  0.219656989  0.260389848  0.302223534  0.344480412  0.386258019  0.426394125
  0.463437993  0.495635322  0.520937280  0.537046904  0.541517958  0.531920452
  0.506081202  0.462394731  0.400178410  0.320018325  0.224026463  0.115918468
  0.000838389 -0.001688052 -0.037201469 -0.074005061 -0.110026959 -0.144910433
 -0.178336938 -0.210034599 -0.239783724 -0.267419253 -0.292830370 -0.315957679
 -0.336788518 -0.355350976 -0.371707237 -0.385946711 -0.398179403 -0.408529782
  0.267655121  0.306974558  0.346707669  0.386097516  0.424178407  0.459753210
  0.491379981  0.517374808  0.535839573  0.544724675  0.541936684  0.525498200
  0.493760625  0.445659153  0.380983410  0.300619661  0.206707085  0.102649136
 -0.007061607 -0.013630084 -0.035363577 -0.070367524 -0.104664300 -0.137929698
 -0.169872500 -0.200241989 -0.228832971 -0.255488240 -0.280098614 -0.302600868
 -0.322973996 -0.341234294 -0.357429740 -0.371634109 -0.383941175 -0.394459279
  0.309752972  0.347114744  0.384240546  0.420323713  0.454370493  0.485188391
  0.511385562  0.531387137  0.543475274  0.545859933  0.536786174  0.514680442
  0.478332091  0.427097344  0.361101751  0.281406606  0.190098566  0.090264608
 -0.014170644 -0.037179629 -0.033589676 -0.066854813 -0.099481244 -0.131174847
 -0.161669934 -0.190735861 -0.218181587 -0.243858086 -0.267658705 -0.289517706
 -0.309407337 -0.327333817 -0.343332639 -0.357463559 -0.369805574 -0.380452134
  0.394656239  0.424071898  0.451790792  0.477006269  0.498796526  0.516134074
  0.527905974  0.532947492  0.530091397  0.518234079  0.496417875  0.463926357
  0.420386029  0.365864273  0.300950306  0.226804219  0.145160050  0.058272959
 -0.031192131 -0.170824589 -0.028667451 -0.057085257 -0.085010970 -0.112216098
 -0.138492050 -0.163654961 -0.187549180 -0.210049358 -0.231061149 -0.250520651
 -0.268392782 -0.284668822 -0.299363378 -0.312511006 -0.324162711 -0.334382506
  0.370072656  0.402349343  0.433387411  0.462362660  0.488310001  0.510127235
  0.526590402  0.536384392  0.538152403  0.530566926  0.512423072  0.482751909
  0.440947153  0.386893402  0.321079061  0.244673640  0.159548933  0.068228105
 -0.026243614 -0.117379887 -0.030301805 -0.060324758 -0.089798498 -0.118469103
 -0.146106026 -0.172507642 -0.197505162 -0.220964844 -0.242788533 -0.262912716
 -0.281306349 -0.297967745 -0.312920838 -0.326211133 -0.337901566 -0.348068516
  0.340299978  0.375246191  0.409486360  0.442197751  0.472390472  0.498903610
  0.520413121  0.535456390  0.542478682  0.539906272  0.526249281  0.500233776
  0.460957276  0.408054634  0.341853462  0.263491797  0.174968320  0.079099814
 -0.020627011 -0.072348904 -0.032029106 -0.063746746 -0.094851469 -0.125061184
 -0.154121247 -0.181810827 -0.207947278 -0.232388433 -0.255032911 -0.275818670
 -0.294720140 -0.311744325 -0.326926247 -0.340324099 -0.352014400 -0.362087386
  0.304988608  0.342304933  0.379516373  0.415825159  0.450241203  0.481568565
  0.508402988  0.529146627  0.542047116  0.545268444  0.536999880  0.515605824
  0.479812996  0.428921922  0.363017994  0.283146138  0.191406545  0.090931668
 -0.014279758 -0.037469778 -0.033848315 -0.067348874 -0.100165727 -0.131985712
 -0.162527861 -0.191550693 -0.218857072 -0.244296536 -0.267765265 -0.289203987
 -0.308594269 -0.325953665 -0.341330207 -0.354796644 -0.366444804 -0.376380309
  0.263877917  0.303143622  0.342962303  0.382588686  0.421063266  0.457187296
  0.489506959  0.516313889  0.535671202  0.545475653  0.543566569  0.527889494
  0.496715714  0.448906871  0.384197281  0.303448034  0.208812760  0.103753100
 -0.007139994 -0.013782967 -0.035756129 -0.071124308 -0.105730490 -0.139227406
 -0.171305498 -0.201701242 -0.230202505 -0.256650847 -0.280941016 -0.303018045
 -0.322872511 -0.340534565 -0.356067305 -0.369559995 -0.381121534 -0.390874457
  0.216835659  0.257499514  0.299411878  0.341910360  0.384102287  0.424826960
  0.462623764  0.495713895  0.522006615  0.539144031  0.544600423  0.535851371
  0.510621937  0.467209519  0.404854565  0.324103398  0.227080053  0.117571785
  0.000850670 -0.001712996 -0.037746394 -0.075060577 -0.111526679 -0.146760232
 -0.180420836 -0.212221631 -0.241935146 -0.269395495 -0.294497238 -0.317191470
 -0.337479848 -0.355407310 -0.371054172 -0.384528207 -0.395957137 -0.405481879
  0.163902842  0.205280902  0.248613802  0.293353275  0.338713407  0.383619930
  0.426660482  0.466043435  0.499577201  0.524686988  0.538490939  0.537960322
  0.520185500  0.482756145  0.424236275  0.344672090  0.246021834  0.132363186
  0.009743410 -0.001126208 -0.039809456 -0.079138314 -0.117525126 -0.154545156
 -0.189825011 -0.223053359 -0.253987266 -0.282454164 -0.308349896 -0.331633577
 -0.352320167 -0.370471670 -0.386187802 -0.399596801 -0.410846890 -0.420098716
  0.105342075  0.146625569  0.190546464  0.236699746  0.284446748  0.332852717
  0.380619112  0.426016952  0.466832774  0.500345811  0.523363603  0.532351427
  0.523694354  0.494122248  0.441297995  0.364511139  0.265338205  0.148056001
  0.019577248 -0.011333602 -0.041931495 -0.083329962 -0.123684724 -0.162527861
 -0.199451026 -0.234117514 -0.266269048 -0.295727386 -0.322391330 -0.346230126
 -0.367274334 -0.385605316 -0.401344309 -0.414641861 -0.425668207 -0.434604887
  0.041685989  0.081962577  0.125494475  0.172043154  0.221153691  0.272083694
  0.323719934  0.374486481  0.422253551  0.464264833  0.497113305  0.516810650
  0.519009430  0.499440645  0.454605964  0.382694088  0.284566720  0.164511323
  0.030372631 -0.031031038 -0.044093881 -0.087598535 -0.129950690 -0.170636626
 -0.209211395 -0.245312322 -0.278666190 -0.309090313 -0.336488289 -0.360841672
 -0.382198909 -0.400662909 -0.416378379 -0.429519806 -0.440280697 -0.448864391
 -0.026219296  0.012071913  0.054127527  0.099888597  0.149110748  0.201289421
  0.255566077  0.310615472  0.364518625  0.414634819  0.457500540  0.488805362
  0.503522856  0.496299911  0.462207894  0.397894727  0.303007840  0.181491464
  0.042123097 -0.058197066 -0.046272638 -0.091896594 -0.136253149 -0.178780647
 -0.218996338 -0.256511363 -0.291038262 -0.322391330 -0.350480872 -0.375302884
 -0.396925840 -0.415476151 -0.431123651 -0.444068058 -0.454527068 -0.462726380
 -0.097182317 -0.061865910 -0.022427360  0.021252977  0.069152292  0.121033249
  0.176347832  0.234112863  0.292755478  0.349933455  0.402349343  0.445603246
  0.474171131  0.481651291  0.461469838  0.408217766  0.319607593  0.198610388
  0.054784144 -0.089997739 -0.048438106 -0.096165629 -0.142506313 -0.186849132
 -0.228672920 -0.267562873 -0.303218277 -0.335451960 -0.364182799 -0.389423191
 -0.411263465 -0.429855107 -0.445394294 -0.458106815 -0.468235027 -0.476027138
 -0.169653977 -0.138240452 -0.102532714 -0.062250170 -0.017203952  0.032640436
  0.087074371  0.145523121  0.206880049  0.269291798  0.329897292  0.384546275
  0.427571174  0.451771412  0.448889276  0.410953157  0.332765622  0.215248850
  0.068257190 -0.122771304 -0.050554939 -0.100336077 -0.148608598 -0.194711595
 -0.238085607 -0.278290629 -0.315013954 -0.348068516 -0.377383455 -0.402989163
 -0.424999180 -0.443591078 -0.458988016 -0.471442116 -0.481220338 -0.488593072
 -0.241743146 -0.215013674 -0.184022067 -0.148361084 -0.107663227 -0.061648455
 -0.010196223  0.046547829  0.108016730  0.173001731  0.239349768  0.303572585
  0.360398227  0.402388785  0.419936305  0.402232906  0.340011116  0.230397110
  0.082363122 -0.152174065 -0.052582543 -0.104328229 -0.154444014 -0.202219755
 -0.247058683 -0.288496887 -0.326211133 -0.360015948 -0.389852071 -0.415768946
 -0.437904013 -0.456461226 -0.471690636 -0.483870292 -0.493291082 -0.500244735
 -0.311267509 -0.289765181 -0.264232455 -0.234182812 -0.199123846 -0.158587470
 -0.112179175 -0.059656413 -0.001051372  0.063139049  0.131663776  0.202087991
  0.270188514  0.329194917  0.369086260  0.376610318  0.337449340  0.242339823
  0.096790073 -0.173550680 -0.054476097 -0.108054237 -0.159885131 -0.209211395
 -0.255400924 -0.297967745 -0.336579702 -0.371054172 -0.401344309 -0.427518938
 -0.449739257 -0.468235027 -0.483282278 -0.495183806 -0.504253106 -0.510801848
 -0.375844040 -0.359788610 -0.340102024 -0.316271516 -0.287745911 -0.253949650
 -0.214308817 -0.168296615 -0.115510688 -0.055803326  0.010499757  0.082232743
  0.156783217  0.229129335  0.290466103  0.326763037  0.318851898  0.247979717
  0.110969067 -0.182540567 -0.056188203 -0.111421366 -0.164797803 -0.215516396
 -0.262912716 -0.306481109 -0.345882156 -0.380936971 -0.411611256 -0.437992676
 -0.460265069 -0.478682462 -0.493545029 -0.505178341 -0.513916493 -0.520089154
 -0.433018547 -0.422241254 -0.408339667 -0.390823268 -0.369147308 -0.342715558
 -0.310888663 -0.273001906 -0.228399207 -0.176496136 -0.116896914 -0.049615235
  0.024501304  0.102949868  0.180019722  0.244122073  0.274428480  0.241315517
  0.123720746 -0.175850960 -0.057671176 -0.114336460 -0.169047603 -0.220964844
 -0.269395495 -0.313817093 -0.353884571 -0.389423191 -0.420410547 -0.446951617
 -0.469250721 -0.487583582 -0.502271758 -0.513660813 -0.522102774 -0.527942849
 -0.480427032 -0.474339998 -0.465661651 -0.453957091 -0.438736895 -0.419455154
 -0.395509367 -0.366243189 -0.330953777 -0.288907338 -0.239371236 -0.181683391
 -0.115411823 -0.040740965  0.040564194  0.122758321  0.190586531  0.210097151
  0.132053437 -0.152037952 -0.058879854 -0.116711401 -0.172507642 -0.225396804
 -0.274663005 -0.319770262 -0.360369366 -0.396289595 -0.427518938 -0.454177163
 -0.476485865 -0.494738897 -0.509275547 -0.520457837 -0.528652450 -0.534217213
 -0.515974417 -0.513586061 -0.509074753 -0.502071809 -0.492163388 -0.478889236
 -0.461742616 -0.440171438 -0.413580247 -0.381332068 -0.342748401 -0.297105444
 -0.243628036 -0.181501267 -0.109997592 -0.029134527  0.057431974  0.130884726
  0.126158872 -0.112075723 -0.059774684 -0.118469103 -0.175067102 -0.228672920
 -0.278553416 -0.324162711 -0.365148801 -0.401344309 -0.432745331 -0.459482971
 -0.481791943 -0.499979775 -0.514399044 -0.525424038 -0.533432309 -0.538790990
 -0.538010096 -0.537991420 -0.536170243 -0.532230277 -0.525820674 -0.516557609
 -0.504028038 -0.487796039 -0.467411867 -0.442423208 -0.412386838 -0.376876525
 -0.335478556 -0.287757505 -0.233157321 -0.170770284 -0.098901888 -0.015231425
  0.066646824 -0.059499665 -0.060324758 -0.119549369 -0.176639561 -0.230684705
 -0.280941016 -0.326856584 -0.368077802 -0.404439509 -0.435942956 -0.462726380
 -0.485032696 -0.503177940 -0.517522925 -0.528449512 -0.536341940 -0.541573043
 -0.545476718 -0.546274198 -0.545383050 -0.542506790 -0.537318884 -0.529465761
 -0.518572667 -0.504253106 -0.486122657 -0.463817716 -0.437019359 -0.405481879
 -0.369064606 -0.327764519 -0.281746005 -0.231363190 -0.177170010 -0.119913848
 -0.060510373 -0.000000000 -0.060510373 -0.119913848 -0.177170010 -0.231363190
 -0.281746005 -0.327764519 -0.369064606 -0.405481879 -0.437019359 -0.463817716
 -0.486122657 -0.504253106 -0.518572667 -0.529465761 -0.537318884 -0.542506790
 -0.538010096 -0.537991420 -0.536170243 -0.532230277 -0.525820674 -0.516557609
 -0.504028038 -0.487796039 -0.467411867 -0.442423208 -0.412386838 -0.376876525
 -0.335478556 -0.287757505 -0.233157321 -0.170770284 -0.098901888 -0.015231425
  0.066646824 -0.059499665 -0.060324758 -0.119549369 -0.176639561 -0.230684705
 -0.280941016 -0.326856584 -0.368077802 -0.404439509 -0.435942956 -0.462726380
 -0.485032696 -0.503177940 -0.517522925 -0.528449512 -0.536341940 -0.541573043
 -0.515974417 -0.513586061 -0.509074753 -0.502071809 -0.492163388 -0.478889236
 -0.461742616 -0.440171438 -0.413580247 -0.381332068 -0.342748401 -0.297105444
 -0.243628036 -0.181501267 -0.109997592 -0.029134527  0.057431974  0.130884726
  0.126158872 -0.112075723 -0.059774684 -0.118469103 -0.175067102 -0.228672920
 -0.278553416 -0.324162711 -0.365148801 -0.401344309 -0.432745331 -0.459482971
 -0.481791943 -0.499979775 -0.514399044 -0.525424038 -0.533432309 -0.538790990
 -0.480427032 -0.474339998 -0.465661651 -0.453957091 -0.438736895 -0.419455154
 -0.395509367 -0.366243189 -0.330953777 -0.288907338 -0.239371236 -0.181683391
 -0.115411823 -0.040740965  0.040564194  0.122758321  0.190586531  0.210097151
  0.132053437 -0.152037952 -0.058879854 -0.116711401 -0.172507642 -0.225396804
 -0.274663005 -0.319770262 -0.360369366 -0.396289595 -0.427518938 -0.454177163
 -0.476485865 -0.494738897 -0.509275547 -0.520457837 -0.528652450 -0.534217213
 -0.433018547 -0.422241254 -0.408339667 -0.390823268 -0.369147308 -0.342715558
 -0.310888663 -0.273001906 -0.228399207 -0.176496136 -0.116896914 -0.049615235
  0.024501304  0.102949868  0.180019722  0.244122073  0.274428480  0.241315517
  0.123720746 -0.175850960 -0.057671176 -0.114336460 -0.169047603 -0.220964844
 -0.269395495 -0.313817093 -0.353884571 -0.389423191 -0.420410547 -0.446951617
 -0.469250721 -0.487583582 -0.502271758 -0.513660813 -0.522102774 -0.527942849
 -0.375844040 -0.359788610 -0.340102024 -0.316271516 -0.287745911 -0.253949650
 -0.214308817 -0.168296615 -0.115510688 -0.055803326  0.010499757  0.082232743
  0.156783217  0.229129335  0.290466103  0.326763037  0.318851898  0.247979717
  0.110969067 -0.182540567 -0.056188203 -0.111421366 -0.164797803 -0.215516396
 -0.262912716 -0.306481109 -0.345882156 -0.380936971 -0.411611256 -0.437992676
 -0.460265069 -0.478682462 -0.493545029 -0.505178341 -0.513916493 -0.520089154
 -0.311267509 -0.289765181 -0.264232455 -0.234182812 -0.199123846 -0.158587470
 -0.112179175 -0.059656413 -0.001051372  0.063139049  0.131663776  0.202087991
  0.270188514  0.329194917  0.369086260  0.376610318  0.337449340  0.242339823
  0.096790073 -0.173550680 -0.054476097 -0.108054237 -0.159885131 -0.209211395
 -0.255400924 -0.297967745 -0.336579702 -0.371054172 -0.401344309 -0.427518938
 -0.449739257 -0.468235027 -0.483282278 -0.495183806 -0.504253106 -0.510801848
 -0.241743146 -0.215013674 -0.184022067 -0.148361084 -0.107663227 -0.061648455
 -0.010196223  0.046547829  0.108016730  0.173001731  0.239349768  0.303572585
  0.360398227  0.402388785  0.419936305  0.402232906  0.340011116  0.230397110
  0.082363122 -0.152174065 -0.052582543 -0.104328229 -0.154444014 -0.202219755